/*--------------------------------*- C++ -*----------------------------------*\
| =========                 |                                                 |
| \\      /  F ield         | OpenFOAM: The Open Source CFD Toolbox           |
|  \\    /   O peration     | Version:  2306                                  |
|   \\  /    A nd           | Website:  www.openfoam.com                      |
|    \\/     M anipulation  |                                                 |
\*---------------------------------------------------------------------------*/
FoamFile
{
    version     2.0;
    format      ascii;
    arch        "LSB;label=32;scalar=64";
    class       volScalarField;
    location    "0.5";
    object      p;
}
// * * * * * * * * * * * * * * * * * * * * * * * * * * * * * * * * * * * * * //

dimensions      [0 2 -2 0 0 0 0];

internalField   nonuniform List<scalar> 
400
(
-2.41056e-06
-0.00323819
-0.00719275
-0.014112
-0.0192492
-0.0211263
-0.0188667
-0.0115175
0.00401667
0.0248786
0.00323079
-4.55705e-05
-0.0029714
-0.00787086
-0.0114544
-0.0124573
-0.0101396
-0.00414421
0.0090777
0.0266265
0.00727303
0.00280982
-0.000200398
-0.00478604
-0.00794223
-0.00870259
-0.00646803
-0.000917934
0.0111907
0.0271628
0.0147735
0.00773906
0.00399434
-0.000988901
-0.00412727
-0.0048214
-0.00273993
0.00230757
0.013257
0.0275273
0.0213661
0.0116427
0.00681021
0.00082208
-0.00277024
-0.00366449
-0.00173288
0.00309542
0.0135329
0.0272256
0.0256599
0.0131199
0.00707735
-0.000210797
-0.00446605
-0.00561552
-0.00370533
0.00124659
0.0119252
0.0259588
0.0264478
0.0108762
0.00359983
-0.00504649
-0.0099964
-0.011281
-0.00909982
-0.00364626
0.00811588
0.0234419
0.0213534
0.00339466
-0.0051204
-0.0151185
-0.0205843
-0.0217518
-0.0189318
-0.0123445
0.00136141
0.0194005
0.00520622
-0.0172461
-0.0275043
-0.0390689
-0.0446649
-0.0448857
-0.0402769
-0.0310366
-0.0129499
0.0102022
-0.0276699
-0.0546125
-0.0662535
-0.0784661
-0.083261
-0.0811123
-0.072948
-0.0597888
-0.0347457
-0.00375156
0.0431228
0.0642987
0.0802209
0.0876993
0.0898461
0.0876806
0.0822179
0.0751082
0.0711428
0.068007
0.0413808
0.0591905
0.0727391
0.0788447
0.0810886
0.0798675
0.0760283
0.0709641
0.0680215
0.0648622
0.0407362
0.0569786
0.0694353
0.0751166
0.0772952
0.076327
0.0729138
0.068153
0.0651238
0.0608141
0.0398803
0.054504
0.0659253
0.0712054
0.0732687
0.0723657
0.0689291
0.0637074
0.0599223
0.0530873
0.0390478
0.0532528
0.064423
0.0696516
0.0716808
0.0705932
0.0666322
0.0603032
0.0553742
0.0458306
0.0381516
0.0529589
0.0648043
0.0704733
0.0726966
0.0714283
0.0667383
0.0589536
0.052712
0.0402504
0.0369395
0.0534493
0.0670525
0.0738021
0.0766494
0.07544
0.0700467
0.0606777
0.0530411
0.0373115
0.0348923
0.0546709
0.0713258
0.0799835
0.084212
0.0835349
0.0776862
0.0667779
0.057679
0.039074
0.0306914
0.0568645
0.0801517
0.093403
0.101089
0.102508
0.0969842
0.0842669
0.0729867
0.0489253
0.0231012
0.059264
0.0929933
0.113411
0.127596
0.133677
0.130224
0.116917
0.103758
0.0737555
-0.0686304
-0.0985973
-0.111527
-0.124062
-0.126518
-0.120791
-0.108301
-0.089644
-0.0577051
-0.0184395
-0.143151
-0.180471
-0.194375
-0.203754
-0.200323
-0.186328
-0.164597
-0.137065
-0.0929573
-0.0423982
-0.25746
-0.302898
-0.315746
-0.31659
-0.298949
-0.269167
-0.232329
-0.191268
-0.131747
-0.0674042
-0.378553
-0.432753
-0.441726
-0.426815
-0.388431
-0.338687
-0.285348
-0.230504
-0.158002
-0.0842615
-0.552005
-0.612641
-0.609178
-0.560485
-0.487266
-0.407997
-0.332451
-0.262545
-0.177227
-0.095193
-0.817551
-0.874279
-0.836093
-0.718988
-0.58758
-0.467439
-0.366154
-0.280864
-0.185333
-0.098743
-1.28494
-1.27182
-1.13979
-0.888271
-0.669053
-0.500344
-0.375263
-0.278816
-0.179358
-0.0942302
-2.29694
-1.87577
-1.50633
-1.02056
-0.695211
-0.485663
-0.347996
-0.25216
-0.159512
-0.0825781
-3.71939
-2.3219
-1.69777
-1.02993
-0.655942
-0.441193
-0.30993
-0.222931
-0.141055
-0.0737882
-7.65903
-2.8236
-1.53665
-0.759611
-0.453
-0.299316
-0.210442
-0.156635
-0.10339
-0.0591268
0.0149342
0.0608657
0.105636
0.134841
0.156972
0.169657
0.170491
0.157505
0.142758
0.107933
0.00200545
0.0624142
0.12505
0.169323
0.206844
0.233577
0.244646
0.236767
0.220942
0.176488
-0.0127708
0.0644388
0.148621
0.212958
0.273472
0.324069
0.356303
0.361432
0.347641
0.293457
-0.0213189
0.0664481
0.167674
0.250148
0.333356
0.411161
0.471555
0.498019
0.490026
0.426517
-0.026904
0.0702658
0.186849
0.288147
0.398934
0.513676
0.617514
0.686201
0.694419
0.626692
-0.0279057
0.0743277
0.20278
0.321952
0.46303
0.625889
0.79813
0.947272
0.99703
0.939688
-0.0249013
0.0761566
0.209878
0.341842
0.510579
0.728796
1.0004
1.3013
1.45709
1.48662
-0.0209671
0.0728213
0.201087
0.334951
0.519581
0.78507
1.17528
1.73359
2.14811
2.62807
-0.0192482
0.0656042
0.184277
0.310772
0.491159
0.765485
1.2116
1.96946
2.65806
4.17026
-0.019528
0.0434128
0.135285
0.231904
0.373443
0.591833
0.978304
1.86719
3.26187
8.2835
)
;

boundaryField
{
    movingWall
    {
        type            zeroGradient;
    }
    fixedWalls
    {
        type            zeroGradient;
    }
    frontAndBack
    {
        type            empty;
    }
}


// ************************************************************************* //
