/*--------------------------------*- C++ -*----------------------------------*\
| =========                 |                                                 |
| \\      /  F ield         | OpenFOAM: The Open Source CFD Toolbox           |
|  \\    /   O peration     | Version:  2306                                  |
|   \\  /    A nd           | Website:  www.openfoam.com                      |
|    \\/     M anipulation  |                                                 |
\*---------------------------------------------------------------------------*/
FoamFile
{
    version     2.0;
    format      ascii;
    arch        "LSB;label=32;scalar=64";
    class       volVectorField;
    location    "0.5";
    object      U;
}
// * * * * * * * * * * * * * * * * * * * * * * * * * * * * * * * * * * * * * //

dimensions      [0 1 -1 0 0 0 0];

internalField   nonuniform List<vector> 
400
(
(7.60468e-05 -7.58172e-05 0)
(8.03417e-05 1.86109e-05 0)
(-0.000151152 0.000122729 0)
(-0.00100646 0.000264569 0)
(-0.00250907 0.000389184 0)
(-0.00431903 0.000440117 0)
(-0.0060963 0.000415645 0)
(-0.00838073 0.000411424 0)
(-0.0100956 0.000252748 0)
(-0.0115767 8.04526e-05 0)
(-1.38499e-05 -8.43884e-05 0)
(-0.000672522 0.000679365 0)
(-0.00182483 0.00141887 0)
(-0.00499038 0.00255113 0)
(-0.0096103 0.00337941 0)
(-0.0151833 0.00378138 0)
(-0.0211203 0.00374464 0)
(-0.0268745 0.0033244 0)
(-0.032898 0.00219049 0)
(-0.0362173 0.00067563 0)
(-0.000115325 0.000138273 0)
(-0.00142266 0.00183351 0)
(-0.00329241 0.00327114 0)
(-0.00802163 0.00547162 0)
(-0.0146065 0.00708496 0)
(-0.0223766 0.00785788 0)
(-0.030554 0.00775064 0)
(-0.0383748 0.00683896 0)
(-0.0467391 0.00451927 0)
(-0.051017 0.00136841 0)
(-0.000265786 0.000995439 0)
(-0.00269476 0.00510329 0)
(-0.005805 0.00810283 0)
(-0.013059 0.0124993 0)
(-0.0227062 0.0156667 0)
(-0.0337135 0.0171203 0)
(-0.0451295 0.016779 0)
(-0.0558767 0.014732 0)
(-0.0673679 0.00969882 0)
(-0.0732095 0.00298479 0)
(-0.000432509 0.00261967 0)
(-0.00393232 0.0102494 0)
(-0.0082907 0.0153686 0)
(-0.0181078 0.0225825 0)
(-0.0306308 0.0275005 0)
(-0.044678 0.0296462 0)
(-0.059048 0.0288875 0)
(-0.0724428 0.0251642 0)
(-0.0866323 0.0165633 0)
(-0.0939115 0.00508079 0)
(-0.000568114 0.00483159 0)
(-0.00510535 0.0172683 0)
(-0.0106756 0.0250806 0)
(-0.0230065 0.0356535 0)
(-0.0384411 0.0425657 0)
(-0.0554702 0.0453259 0)
(-0.0726599 0.0438196 0)
(-0.0885593 0.0379916 0)
(-0.105282 0.0249364 0)
(-0.113907 0.00769847 0)
(-0.00066281 0.00746091 0)
(-0.00625441 0.0262119 0)
(-0.0130168 0.0373174 0)
(-0.0278316 0.0518873 0)
(-0.0462912 0.0609981 0)
(-0.0662931 0.0642429 0)
(-0.0861983 0.0616437 0)
(-0.104537 0.0532177 0)
(-0.123707 0.034792 0)
(-0.133638 0.0109151 0)
(-0.000886695 0.0115487 0)
(-0.00750873 0.037362 0)
(-0.0154941 0.0523874 0)
(-0.0329795 0.0715655 0)
(-0.054277 0.0831465 0)
(-0.0772292 0.0867626 0)
(-0.099878 0.0825949 0)
(-0.120458 0.0710542 0)
(-0.141959 0.0464598 0)
(-0.153257 0.0145548 0)
(-0.00103077 0.0170026 0)
(-0.00920278 0.0554426 0)
(-0.0190177 0.0770446 0)
(-0.0400971 0.103527 0)
(-0.065409 0.11839 0)
(-0.0921213 0.122008 0)
(-0.117992 0.115125 0)
(-0.141178 0.098245 0)
(-0.165114 0.0641503 0)
(-0.177926 0.0210775 0)
(-0.00137613 0.0252551 0)
(-0.0113139 0.0780717 0)
(-0.0229543 0.106864 0)
(-0.0477684 0.14103 0)
(-0.0766831 0.159154 0)
(-0.106337 0.161863 0)
(-0.134187 0.150846 0)
(-0.158615 0.128288 0)
(-0.183263 0.0834217 0)
(-0.197032 0.0280653 0)
(-0.0115913 -7.33677e-05 0)
(-0.0101294 -0.000252254 0)
(-0.00839169 -0.000419371 0)
(-0.0060703 -0.000425256 0)
(-0.00425527 -0.00044795 0)
(-0.00242633 -0.000390699 0)
(-0.00093407 -0.000258836 0)
(-0.000107964 -0.000112429 0)
(0.00010166 -9.5342e-06 0)
(7.7171e-05 7.6835e-05 0)
(-0.0362472 -0.000636476 0)
(-0.0329643 -0.00219292 0)
(-0.0268789 -0.00337863 0)
(-0.0210307 -0.0038142 0)
(-0.0150036 -0.00383404 0)
(-0.00938535 -0.00338848 0)
(-0.0047868 -0.00251026 0)
(-0.00169836 -0.00135048 0)
(-0.000603026 -0.00061638 0)
(-3.59861e-06 0.000106183 0)
(-0.0510539 -0.0012984 0)
(-0.0468213 -0.00452683 0)
(-0.0383797 -0.00694354 0)
(-0.0304402 -0.00788405 0)
(-0.0221479 -0.00795903 0)
(-0.0143172 -0.00710326 0)
(-0.0077552 -0.00539404 0)
(-0.00312246 -0.00313854 0)
(-0.00132681 -0.00170821 0)
(-0.000100724 -8.9498e-05 0)
(-0.073272 -0.00284403 0)
(-0.0675215 -0.00971007 0)
(-0.0559551 -0.0149366 0)
(-0.0450542 -0.0170474 0)
(-0.0334836 -0.0173293 0)
(-0.0223755 -0.015716 0)
(-0.0127279 -0.0123542 0)
(-0.00558467 -0.00783979 0)
(-0.00256669 -0.00484521 0)
(-0.000246572 -0.000887531 0)
(-0.0940409 -0.00479672 0)
(-0.086994 -0.0165382 0)
(-0.0727848 -0.0254785 0)
(-0.0592169 -0.0293313 0)
(-0.0446222 -0.0300213 0)
(-0.0303912 -0.0276326 0)
(-0.0177999 -0.0223987 0)
(-0.00805567 -0.0149668 0)
(-0.00378795 -0.0098351 0)
(-0.000407916 -0.00242857 0)
(-0.114173 -0.00710058 0)
(-0.106078 -0.024761 0)
(-0.0894818 -0.0383998 0)
(-0.0733971 -0.0444971 0)
(-0.0558796 -0.0459739 0)
(-0.0385142 -0.0428998 0)
(-0.0228579 -0.0355223 0)
(-0.0104908 -0.0245816 0)
(-0.00497494 -0.0167094 0)
(-0.000541961 -0.00455082 0)
(-0.134142 -0.00967924 0)
(-0.125253 -0.0342365 0)
(-0.106496 -0.0536589 0)
(-0.0879742 -0.0626338 0)
(-0.0676066 -0.0653385 0)
(-0.0470229 -0.061756 0)
(-0.0280571 -0.0520039 0)
(-0.0129918 -0.0368515 0)
(-0.00619133 -0.0255853 0)
(-0.000641496 -0.00710626 0)
(-0.154105 -0.0121286 0)
(-0.144677 -0.0451146 0)
(-0.124063 -0.071392 0)
(-0.103381 -0.083962 0)
(-0.0800797 -0.0885707 0)
(-0.0561855 -0.0847012 0)
(-0.0339553 -0.0723269 0)
(-0.0158061 -0.0522425 0)
(-0.00760215 -0.0368652 0)
(-0.000878879 -0.0111491 0)
(-0.179468 -0.0157719 0)
(-0.17006 -0.0607554 0)
(-0.14802 -0.0980006 0)
(-0.124982 -0.117098 0)
(-0.0982026 -0.125322 0)
(-0.0698979 -0.121888 0)
(-0.0427709 -0.106109 0)
(-0.0201609 -0.078131 0)
(-0.00969643 -0.055703 0)
(-0.00106674 -0.0167441 0)
(-0.199335 -0.0179052 0)
(-0.190905 -0.0764063 0)
(-0.169613 -0.126621 0)
(-0.1458 -0.153293 0)
(-0.116958 -0.167354 0)
(-0.0850048 -0.165918 0)
(-0.0531141 -0.147073 0)
(-0.0254862 -0.110704 0)
(-0.012519 -0.080298 0)
(-0.00150671 -0.0255543 0)
(-0.0016133 0.0322349 0)
(-0.0131833 0.0987976 0)
(-0.0264956 0.13414 0)
(-0.0543322 0.175035 0)
(-0.0855542 0.194618 0)
(-0.116363 0.19534 0)
(-0.144198 0.18012 0)
(-0.167555 0.151526 0)
(-0.190679 0.0984323 0)
(-0.203524 0.0340432 0)
(-0.00190164 0.0415418 0)
(-0.0160828 0.129396 0)
(-0.0320751 0.174286 0)
(-0.0633261 0.221962 0)
(-0.0959899 0.241027 0)
(-0.12538 0.236496 0)
(-0.149472 0.213811 0)
(-0.167711 0.177063 0)
(-0.184238 0.114125 0)
(-0.193073 0.0418111 0)
(-0.00276256 0.056792 0)
(-0.0206854 0.166631 0)
(-0.0396731 0.219809 0)
(-0.0734223 0.270396 0)
(-0.103404 0.283489 0)
(-0.125309 0.269084 0)
(-0.138735 0.236262 0)
(-0.14523 0.191505 0)
(-0.148184 0.121552 0)
(-0.148922 0.0454963 0)
(-0.00332465 0.0661976 0)
(-0.0258249 0.199263 0)
(-0.0476118 0.257643 0)
(-0.0816266 0.306164 0)
(-0.1043 0.307351 0)
(-0.11405 0.281384 0)
(-0.113892 0.240379 0)
(-0.105616 0.189594 0)
(-0.0937298 0.118179 0)
(-0.0858508 0.0454675 0)
(-0.00514059 0.0844095 0)
(-0.0339793 0.237079 0)
(-0.0582074 0.296285 0)
(-0.0867032 0.331101 0)
(-0.0941606 0.315764 0)
(-0.083853 0.275898 0)
(-0.0632161 0.226458 0)
(-0.0375035 0.173765 0)
(-0.00837269 0.105898 0)
(0.00918221 0.040897 0)
(-0.0086837 0.108392 0)
(-0.046581 0.28043 0)
(-0.0702528 0.331593 0)
(-0.0817672 0.33975 0)
(-0.0604228 0.300147 0)
(-0.0207408 0.246555 0)
(0.0245046 0.192982 0)
(0.0694727 0.142845 0)
(0.114928 0.0845352 0)
(0.140997 0.0325543 0)
(-0.0163198 0.143806 0)
(-0.0626269 0.323983 0)
(-0.0735618 0.349181 0)
(-0.0453438 0.314871 0)
(0.023796 0.249108 0)
(0.0986488 0.189055 0)
(0.16607 0.139842 0)
(0.226666 0.0993943 0)
(0.282047 0.0566837 0)
(0.312256 0.0216076 0)
(-0.0318124 0.214087 0)
(-0.0563103 0.338133 0)
(-0.0184618 0.310556 0)
(0.0905306 0.228319 0)
(0.206987 0.158252 0)
(0.305838 0.109357 0)
(0.383594 0.0757154 0)
(0.442553 0.0517856 0)
(0.494658 0.0284615 0)
(0.522016 0.0104095 0)
(-0.0249556 0.267064 0)
(0.0148041 0.295118 0)
(0.108887 0.23273 0)
(0.268223 0.14435 0)
(0.396206 0.0901604 0)
(0.489975 0.0584797 0)
(0.557459 0.0389312 0)
(0.605088 0.0260797 0)
(0.647284 0.0139513 0)
(0.666445 0.00502894 0)
(0.26201 0.171372 0)
(0.458053 0.110903 0)
(0.604337 0.0630387 0)
(0.743204 0.02479 0)
(0.802377 0.0128036 0)
(0.841252 0.00734762 0)
(0.869625 0.00436905 0)
(0.878937 0.00315838 0)
(0.897141 0.00148674 0)
(0.899525 0.000504587 0)
(-0.206333 -0.018803 0)
(-0.200209 -0.087271 0)
(-0.181682 -0.147878 0)
(-0.159669 -0.18258 0)
(-0.131048 -0.202861 0)
(-0.0975616 -0.204968 0)
(-0.062428 -0.185313 0)
(-0.0305097 -0.141612 0)
(-0.0151693 -0.103771 0)
(-0.00184392 -0.0334 0)
(-0.196083 -0.0189847 0)
(-0.194511 -0.0964859 0)
(-0.183822 -0.169429 0)
(-0.16817 -0.215232 0)
(-0.144244 -0.246267 0)
(-0.112451 -0.256689 0)
(-0.0751631 -0.239376 0)
(-0.0383554 -0.188607 0)
(-0.0192799 -0.139783 0)
(-0.00228492 -0.0444933 0)
(-0.150864 -0.0160633 0)
(-0.155414 -0.097556 0)
(-0.158048 -0.178684 0)
(-0.155293 -0.234604 0)
(-0.144003 -0.279202 0)
(-0.121584 -0.303616 0)
(-0.0878955 -0.295749 0)
(-0.0480718 -0.243066 0)
(-0.0251944 -0.184687 0)
(-0.0033953 -0.0628376 0)
(-0.086136 -0.0137329 0)
(-0.0954958 -0.091005 0)
(-0.110962 -0.172826 0)
(-0.123373 -0.234945 0)
(-0.12731 -0.289338 0)
(-0.119766 -0.3285 0)
(-0.0960391 -0.336656 0)
(-0.0568576 -0.288032 0)
(-0.0310548 -0.223999 0)
(-0.00404852 -0.0746434 0)
(0.0111338 -0.0104523 0)
(-0.00259199 -0.078619 0)
(-0.0313871 -0.154392 0)
(-0.0600158 -0.216837 0)
(-0.0855584 -0.279365 0)
(-0.101249 -0.334317 0)
(-0.0969492 -0.362883 0)
(-0.0667585 -0.332302 0)
(-0.0393884 -0.268244 0)
(-0.00605104 -0.0962442 0)
(0.145129 -0.00737574 0)
(0.128428 -0.0608205 0)
(0.0885387 -0.123558 0)
(0.0436918 -0.180139 0)
(-0.00552675 -0.244049 0)
(-0.0526414 -0.311998 0)
(-0.0823315 -0.367671 0)
(-0.0752126 -0.369403 0)
(-0.0509912 -0.31613 0)
(-0.00973688 -0.123594 0)
(0.317624 -0.00473742 0)
(0.300292 -0.0399523 0)
(0.255138 -0.0838741 0)
(0.199368 -0.126762 0)
(0.131478 -0.18169 0)
(0.0507846 -0.251775 0)
(-0.0296108 -0.332544 0)
(-0.0698978 -0.381714 0)
(-0.0634621 -0.359368 0)
(-0.0174032 -0.161707 0)
(0.526756 -0.00242328 0)
(0.511437 -0.0201251 0)
(0.470695 -0.0430333 0)
(0.419108 -0.0670511 0)
(0.346051 -0.101927 0)
(0.247347 -0.154542 0)
(0.123905 -0.232881 0)
(6.64611e-05 -0.328865 0)
(-0.0481366 -0.364084 0)
(-0.0317839 -0.233358 0)
(0.669925 -0.0013648 0)
(0.659722 -0.0100536 0)
(0.626764 -0.0216643 0)
(0.585966 -0.0341767 0)
(0.524441 -0.0536497 0)
(0.434381 -0.0861573 0)
(0.305088 -0.143575 0)
(0.135652 -0.240493 0)
(0.0308989 -0.310415 0)
(-0.0218498 -0.283025 0)
(0.900403 -0.000213488 0)
(0.900286 -0.00118264 0)
(0.885009 -0.00272503 0)
(0.877494 -0.00389548 0)
(0.851938 -0.00669355 0)
(0.815928 -0.0118799 0)
(0.759243 -0.0234407 0)
(0.622221 -0.0619334 0)
(0.473529 -0.111412 0)
(0.268009 -0.174552 0)
)
;

boundaryField
{
    movingWall
    {
        type            fixedValue;
        value           uniform (1 0 0);
    }
    fixedWalls
    {
        type            noSlip;
    }
    frontAndBack
    {
        type            empty;
    }
}


// ************************************************************************* //
