/*--------------------------------*- C++ -*----------------------------------*\
| =========                 |                                                 |
| \\      /  F ield         | OpenFOAM: The Open Source CFD Toolbox           |
|  \\    /   O peration     | Version:  2306                                  |
|   \\  /    A nd           | Website:  www.openfoam.com                      |
|    \\/     M anipulation  |                                                 |
\*---------------------------------------------------------------------------*/
FoamFile
{
    version     2.0;
    format      ascii;
    arch        "LSB;label=32;scalar=64";
    class       volScalarField;
    location    "0.6";
    object      p;
}
// * * * * * * * * * * * * * * * * * * * * * * * * * * * * * * * * * * * * * //

dimensions      [0 2 -2 0 0 0 0];

internalField   nonuniform List<scalar> 
1681
(
-4.19516e-06
-0.00111202
-0.00371547
-0.00726333
-0.0111173
-0.0148014
-0.0179693
-0.0203733
-0.0218455
-0.0222822
-0.0216312
-0.0198815
-0.0170564
-0.0132069
-0.00840738
-0.00275198
0.00364871
0.01067
0.0181755
0.0260193
0.0340479
0.0421026
0.0500216
0.0576432
0.0648083
0.0713641
0.0771679
0.0820909
0.0860233
0.0888788
0.0906003
0.0911655
0.0905933
0.0889511
0.0863636
0.0830229
0.0792015
0.0752656
0.0717016
0.0691432
0.0681092
0.00110001
-5.23754e-06
-0.00212248
-0.00488498
-0.00786795
-0.0107209
-0.0131686
-0.0150022
-0.016072
-0.0162791
-0.0155684
-0.0139209
-0.0113487
-0.00788996
-0.00360462
0.00142849
0.0071147
0.0133459
0.0200027
0.0269568
0.0340728
0.0412105
0.0482272
0.0549807
0.0613317
0.0671473
0.0723042
0.0766931
0.080222
0.0828213
0.084448
0.0850906
0.0847746
0.0835676
0.0815849
0.0789958
0.0760284
0.0729734
0.0701903
0.0681059
0.0670771
0.00371867
0.00210895
-3.59381e-05
-0.00251706
-0.00509737
-0.00751731
-0.00956014
-0.0110572
-0.0118829
-0.0119511
-0.0112112
-0.00964373
-0.00725627
-0.00407972
-0.000165162
0.00441896
0.00958933
0.0152499
0.0212941
0.0276066
0.0340657
0.0405449
0.0469158
0.0530501
0.0588226
0.0641144
0.0688154
0.0728288
0.0760741
0.0784912
0.0800443
0.0807263
0.0805621
0.0796132
0.0779807
0.0758077
0.0732804
0.0706305
0.0681275
0.0660218
0.0645177
0.007351
0.00490173
0.00238247
-0.00016238
-0.00266728
-0.00493895
-0.00680773
-0.00814329
-0.00884653
-0.00884809
-0.00810692
-0.0066078
-0.00435854
-0.00138736
0.00225963
0.00652063
0.0113201
0.0165709
0.0221758
0.0280293
0.0340197
0.040031
0.045945
0.0516436
0.0570113
0.0619383
0.0663236
0.0700776
0.073126
0.0754134
0.076906
0.0775958
0.0775031
0.0766789
0.0752076
0.0732057
0.0708222
0.068243
0.0656745
0.0632059
0.0608948
0.0114283
0.00799659
0.00493534
0.00215119
-0.000448851
-0.00272468
-0.00454643
-0.0058194
-0.00647079
-0.00644925
-0.00572541
-0.00429075
-0.00215584
0.000651405
0.00408755
0.00809528
0.012605
0.0175363
0.0227995
0.0282971
0.0339257
0.0395774
0.0451422
0.0505098
0.0555721
0.060226
0.0643761
0.0679376
0.0708395
0.0730277
0.0744678
0.0751478
0.0750809
0.0743063
0.0728904
0.070925
0.068525
0.0658393
0.063025
0.0600212
0.0567549
0.0155414
0.0110831
0.00738914
0.00425123
0.00143691
-0.000954577
-0.00282551
-0.00411255
-0.0047673
-0.0047562
-0.00406235
-0.00268529
-0.000640041
0.00204401
0.00532427
0.00914611
0.013444
0.0181425
0.0231579
0.0283987
0.0337679
0.0391641
0.0444831
0.0496204
0.0544729
0.0589419
0.0629351
0.0663699
0.069176
0.0712981
0.0726986
0.0733599
0.0732861
0.0725041
0.0710631
0.069032
0.0664971
0.0635786
0.0603975
0.0567611
0.0524885
0.0193926
0.0139105
0.00953772
0.00597187
0.00286007
0.000271651
-0.00172043
-0.00307941
-0.00377869
-0.0038014
-0.00314306
-0.00181198
0.000171331
0.00277467
0.00595482
0.00965829
0.013822
0.0183739
0.0232344
0.0283165
0.0335278
0.0387713
0.043947
0.048954
0.0536922
0.0580647
0.0619805
0.0653566
0.0681209
0.0702151
0.0715962
0.0722394
0.0721389
0.071309
0.0697831
0.0676099
0.0648526
0.0616107
0.0579804
0.0536573
0.048373
0.0227567
0.0162733
0.0112039
0.00716704
0.00370537
0.000866803
-0.00129434
-0.00276344
-0.00353299
-0.00360131
-0.00297588
-0.00167385
0.000278176
0.00284426
0.00597949
0.00963023
0.0137345
0.0182224
0.0230168
0.0280339
0.0331841
0.0383733
0.043504
0.048477
0.0531933
0.0575561
0.0614733
0.0648597
0.0676396
0.0697492
0.0711391
0.0717758
0.0716431
0.0707428
0.0690938
0.0667278
0.0636893
0.0600639
0.0559325
0.0508947
0.0446108
0.0254582
0.0180003
0.0122309
0.00770035
0.00385839
0.0007379
-0.00162071
-0.00322132
-0.00407299
-0.00418779
-0.00358436
-0.00228854
-0.000333323
0.00224106
0.00538715
0.00905021
0.0131683
0.0176725
0.0224869
0.0275295
0.0327124
0.0379428
0.0431243
0.0481578
0.0529437
0.0573836
0.0613824
0.064851
0.0677083
0.0698837
0.0713195
0.0719727
0.0718162
0.0708394
0.0690481
0.0664595
0.0631031
0.0590561
0.054391
0.0486235
0.0413529
0.0273534
0.0189434
0.0124768
0.00744212
0.00320447
-0.000214004
-0.00278331
-0.00452298
-0.00545658
-0.00560861
-0.00500814
-0.00368944
-0.00169195
0.000939382
0.00415395
0.00789517
0.0121003
0.0167003
0.0216198
0.0267772
0.0320853
0.0374515
0.0427789
0.0479674
0.0529153
0.057521
0.0616851
0.0653126
0.0683155
0.070615
0.0721438
0.0728482
0.0726895
0.0716453
0.0697086
0.0668842
0.0631899
0.0586981
0.0534785
0.04697
0.0387175
0.0283165
0.0189692
0.0118093
0.00626741
0.00162894
-0.00209186
-0.00487305
-0.00674772
-0.00775248
-0.00792318
-0.00729873
-0.00592156
-0.00383767
-0.00109698
0.0022463
0.00613317
0.0104994
0.0152751
0.0203846
0.0257461
0.0312718
0.0368685
0.0424378
0.0478773
0.0530821
0.0579459
0.0623636
0.0662331
0.0694576
0.0719486
0.073628
0.0744303
0.0743046
0.0732158
0.0711453
0.0680862
0.0640466
0.0590975
0.0533086
0.0460467
0.0368054
0.0282303
0.0179513
0.0101007
0.00405289
-0.000984388
-0.00500297
-0.00798744
-0.00998317
-0.0110388
-0.0112008
-0.0105177
-0.00903996
-0.00682013
-0.0039134
-0.000377919
0.00372446
0.00832752
0.0133601
0.0187454
0.0244008
0.0302375
0.0361606
0.0420695
0.0478587
0.0534188
0.0586379
0.0634038
0.0676056
0.0711367
0.0738972
0.0757965
0.0767561
0.0767116
0.0756152
0.0734357
0.0701554
0.0657738
0.0603621
0.0539928
0.0459611
0.03571
0.0269792
0.0157653
0.00722409
0.000673624
-0.00475543
-0.00906022
-0.0122311
-0.014325
-0.0154024
-0.0155201
-0.0147359
-0.0131086
-0.0106976
-0.00756336
-0.00376839
0.000622315
0.00554023
0.0109124
0.0166609
0.0227015
0.0289441
0.0352916
0.0416407
0.0478818
0.0539004
0.0595779
0.0647937
0.0694271
0.0733599
0.0764792
0.0786805
0.0798704
0.0799698
0.0789163
0.076666
0.0731897
0.0684787
0.0626052
0.0556458
0.0468226
0.0355272
0.0244437
0.0122833
0.0030484
-0.00400013
-0.00980994
-0.0143833
-0.0177161
-0.0198771
-0.0209384
-0.0209676
-0.0200322
-0.0181994
-0.0155356
-0.0121072
-0.00798108
-0.00322572
0.00208788
0.00788493
0.0140858
0.020605
0.0273505
0.034223
0.041116
0.0479156
0.0545013
0.0607472
0.0665231
0.0716973
0.0761383
0.0797188
0.082318
0.083826
0.0841468
0.0832018
0.0809325
0.0772973
0.0722785
0.0659493
0.0583912
0.0487492
0.0363612
0.0204971
0.00737048
-0.00256447
-0.0101057
-0.0162817
-0.0211001
-0.0245629
-0.0267513
-0.0277499
-0.0276376
-0.0264924
-0.0243903
-0.0214055
-0.0176104
-0.0130767
-0.00787632
-0.00208297
0.00422671
0.0109716
0.0180649
0.0254128
0.0329138
0.0404582
0.0479275
0.055195
0.0621267
0.0685822
0.0744173
0.0794859
0.0836441
0.0867529
0.0886833
0.0893196
0.0885648
0.0863435
0.0825992
0.0773037
0.070531
0.0623665
0.0518731
0.038331
0.0150015
0.00088137
-0.0097632
-0.0177909
-0.0243145
-0.0293483
-0.0329012
-0.0350682
-0.0359477
-0.0356312
-0.0342082
-0.0317647
-0.0283829
-0.024142
-0.0191187
-0.0133885
-0.0070278
-0.000114798
0.0072682
0.0150333
0.0230855
0.0313215
0.0396285
0.0478836
0.055954
0.063697
0.0709615
0.0775896
0.0834191
0.0882873
0.0920347
0.09451
0.095575
0.0951106
0.0930209
0.0892321
0.0837023
0.0765048
0.0677284
0.0563459
0.0415758
0.00780536
-0.00734351
-0.0187102
-0.0272167
-0.034065
-0.0392771
-0.0428709
-0.0449571
-0.0456498
-0.0450553
-0.0432759
-0.0404087
-0.0365453
-0.031772
-0.0261709
-0.0198213
-0.0128017
-0.00519163
0.00292591
0.0114628
0.0203234
0.0294034
0.0385876
0.0477494
0.0567499
0.0654381
0.0736513
0.0812172
0.087956
0.0936841
0.0982184
0.101382
0.10301
0.102957
0.101103
0.0973514
0.0916433
0.0840486
0.0746578
0.0623447
0.0462603
-0.00125982
-0.017481
-0.0295854
-0.0385609
-0.0457049
-0.0510494
-0.0546234
-0.0565564
-0.0569813
-0.0560213
-0.0537939
-0.0504092
-0.0459693
-0.0405685
-0.0342944
-0.0272301
-0.019456
-0.0110523
-0.00210156
0.00730862
0.0170834
0.0271184
0.0372974
0.0474908
0.0575545
0.0673296
0.0766419
0.0853038
0.0931165
0.0998732
0.105364
0.109383
0.111734
0.112239
0.110747
0.107135
0.101321
0.0933686
0.0833661
0.0700775
0.0525805
-0.0123825
-0.0297292
-0.0425897
-0.0520215
-0.0594244
-0.0648436
-0.0683226
-0.0700139
-0.0700728
-0.0686433
-0.0658608
-0.0618509
-0.0567274
-0.0505937
-0.0435434
-0.0356631
-0.0270346
-0.0177378
-0.0078537
0.00253236
0.0133278
0.0244297
0.0357226
0.0470756
0.0583407
0.0693518
0.0799236
0.0898533
0.0989215
0.106896
0.113538
0.118606
0.121867
0.123105
0.122132
0.118788
0.112962
0.104705
0.0941014
0.0797905
0.0607701
-0.025775
-0.0443126
-0.057951
-0.0678214
-0.0754357
-0.0808564
-0.0841463
-0.0854862
-0.0850597
-0.0830359
-0.0795721
-0.0748118
-0.0688832
-0.0618993
-0.0539605
-0.0451564
-0.0355693
-0.0252774
-0.0143587
-0.00289425
0.00902756
0.021308
0.0338341
0.0464761
0.0590841
0.0714863
0.0834878
0.0948702
0.105393
0.114798
0.12281
0.129152
0.133544
0.135725
0.13546
0.132544
0.126827
0.11834
0.107157
0.091776
0.0711079
-0.0416791
-0.0614883
-0.0759302
-0.0862146
-0.093978
-0.0993058
-0.102287
-0.103139
-0.10208
-0.0993108
-0.0950154
-0.089359
-0.082486
-0.074521
-0.0655707
-0.0557276
-0.0450732
-0.0336825
-0.0216279
-0.00898416
0.00416757
0.0177353
0.0316121
0.0456718
0.0597654
0.0737183
0.0873272
0.10036
0.112555
0.123623
0.133256
0.141129
0.146913
0.150289
0.150964
0.148676
0.143223
0.134606
0.122879
0.106382
0.0839271
-0.0603731
-0.081555
-0.0968302
-0.107493
-0.115323
-0.120434
-0.122954
-0.123145
-0.121272
-0.117572
-0.112265
-0.105541
-0.0975639
-0.0884702
-0.0783739
-0.0673689
-0.0555345
-0.0429399
-0.0296498
-0.0157291
-0.00124856
0.0137104
0.0290503
0.0446526
0.0603731
0.0760374
0.0914374
0.106328
0.120429
0.133421
0.144955
0.154656
0.162136
0.167008
0.168906
0.167495
0.162506
0.153893
0.141681
0.124024
0.0996261
-0.0821824
-0.104865
-0.121008
-0.131999
-0.139781
-0.144514
-0.146374
-0.145684
-0.142767
-0.137912
-0.131376
-0.123382
-0.114115
-0.103727
-0.0923363
-0.0800385
-0.0669077
-0.0530048
-0.0383828
-0.0230933
-0.00719234
0.00925335
0.0261605
0.0434231
0.0609063
0.0784408
0.0958177
0.112784
0.12904
0.144238
0.157987
0.169856
0.179388
0.186117
0.189585
0.189365
0.185095
0.176669
0.164058
0.145203
0.118684
-0.107494
-0.131842
-0.14889
-0.160135
-0.167713
-0.17185
-0.172789
-0.170937
-0.166689
-0.160398
-0.15237
-0.142867
-0.132097
-0.120227
-0.107381
-0.0936517
-0.079106
-0.0637922
-0.0477478
-0.0310063
-0.0136044
0.00441143
0.0229775
0.042006
0.0613776
0.0809342
0.100472
0.119735
0.138408
0.156119
0.172432
0.186857
0.198859
0.207874
0.213338
0.214701
0.211484
0.203486
0.190606
0.170523
0.141679
-0.136776
-0.163002
-0.180998
-0.192384
-0.199541
-0.202786
-0.202462
-0.199083
-0.19314
-0.185067
-0.175231
-0.163935
-0.151416
-0.137854
-0.123377
-0.108071
-0.0919915
-0.0751694
-0.0576213
-0.0393573
-0.0203888
-0.000736255
0.0195628
0.0404456
0.0618156
0.0835336
0.105408
0.127188
0.148551
0.169102
0.188364
0.205785
0.220742
0.232561
0.240543
0.243986
0.242253
0.235012
0.22205
0.200725
0.169317
-0.170613
-0.198994
-0.217975
-0.229333
-0.235761
-0.237712
-0.235668
-0.230288
-0.222192
-0.211909
-0.199881
-0.186459
-0.17191
-0.156423
-0.140127
-0.123096
-0.105367
-0.0869481
-0.0678288
-0.0479891
-0.0274086
-0.00607485
0.0160079
0.0388099
0.0622659
0.0862649
0.110638
0.135148
0.159477
0.183212
0.205844
0.226756
0.245234
0.260475
0.271618
0.277771
0.278087
0.27205
0.259276
0.236722
0.202464
-0.209744
-0.240645
-0.260638
-0.271707
-0.276964
-0.277064
-0.272688
-0.264694
-0.253862
-0.240845
-0.226167
-0.210233
-0.193335
-0.17567
-0.157357
-0.138453
-0.118968
-0.0988791
-0.0781404
-0.0566949
-0.0344831
-0.0114522
0.012435
0.0371905
0.0627901
0.0891618
0.116172
0.14361
0.171174
0.198451
0.224905
0.249864
0.272517
0.291919
0.307019
0.316686
0.319798
0.315576
0.303385
0.279655
0.242203
-0.255139
-0.289036
-0.310034
-0.320407
-0.32385
-0.321327
-0.313802
-0.302396
-0.288097
-0.271702
-0.253832
-0.234942
-0.215345
-0.195233
-0.174705
-0.15379
-0.132459
-0.110649
-0.0882697
-0.0652187
-0.0413896
-0.0166808
0.00899449
0.0356994
0.0634616
0.0922605
0.122012
0.15255
0.183605
0.214783
0.24554
0.27516
0.30274
0.327187
0.34723
0.36144
0.368341
0.366785
0.355758
0.330979
0.289905
-0.308103
-0.345619
-0.367534
-0.376567
-0.377255
-0.371027
-0.359253
-0.343404
-0.324724
-0.30418
-0.282488
-0.260148
-0.237475
-0.214643
-0.191715
-0.16867
-0.145432
-0.121882
-0.0978775
-0.0732602
-0.0478685
-0.0215444
0.00585758
0.034461
0.0643568
0.0955897
0.128141
0.16191
0.196683
0.23211
0.267666
0.302617
0.335986
0.36653
0.392733
0.412816
0.424839
0.427143
0.418151
0.392577
0.347352
-0.370445
-0.412384
-0.434963
-0.441621
-0.438158
-0.426709
-0.409212
-0.387594
-0.363409
-0.337802
-0.311577
-0.285253
-0.259124
-0.233316
-0.207828
-0.182575
-0.157411
-0.132149
-0.106582
-0.080486
-0.0536365
-0.0258107
0.00320311
0.0335986
0.065541
0.0991547
0.134506
0.171579
0.21025
0.250245
0.291097
0.332094
0.372218
0.4101
0.443972
0.471644
0.490594
0.498461
0.492828
0.466947
0.416915
-0.444764
-0.492128
-0.514773
-0.517379
-0.50768
-0.488878
-0.463694
-0.434627
-0.403577
-0.371861
-0.34033
-0.30948
-0.279538
-0.25054
-0.222392
-0.194912
-0.167866
-0.140983
-0.113975
-0.0865486
-0.0584051
-0.0292513
0.00119799
0.0332144
0.067048
0.102917
0.140991
0.181368
0.224044
0.268868
0.315485
0.363262
0.411208
0.457874
0.501266
0.538746
0.567081
0.582969
0.582749
0.557484
0.501863
-0.534937
-0.588882
-0.610297
-0.606096
-0.587036
-0.557896
-0.522434
-0.483828
-0.444321
-0.405343
-0.367719
-0.331841
-0.2978
-0.265487
-0.234669
-0.205035
-0.176236
-0.147901
-0.119652
-0.0911127
-0.0619076
-0.0316673
-2.86011e-05
0.033364
0.068854
0.106766
0.147391
0.19097
0.237656
0.287475
0.340253
0.395525
0.452422
0.509521
0.564676
0.614818
0.655895
0.683381
0.691817
0.66892
0.606885
-0.647008
-0.708582
-0.726068
-0.710509
-0.677399
-0.633774
-0.584684
-0.534018
-0.484274
-0.436853
-0.392415
-0.351125
-0.312839
-0.277228
-0.243864
-0.212272
-0.181961
-0.152443
-0.123241
-0.093889
-0.0639313
-0.0329212
-0.000415664
0.0340271
0.0708488
0.110489
0.15338
0.199927
0.250487
0.305319
0.364517
0.427903
0.494876
0.564212
0.633784
0.700211
0.758597
0.802926
0.825214
0.808033
0.739041
-0.790866
-0.860151
-0.868194
-0.833744
-0.779596
-0.715829
-0.648906
-0.583283
-0.521454
-0.464524
-0.412751
-0.365896
-0.323448
-0.284767
-0.249169
-0.215974
-0.184529
-0.154215
-0.124448
-0.0946724
-0.0643537
-0.0329699
-1.45701e-06
0.0350776
0.0728074
0.113748
0.158479
0.207599
0.261701
0.321347
0.386995
0.458901
0.536941
0.620352
0.707351
0.79455
0.876391
0.945239
0.989762
0.984761
0.909565
-0.983662
-1.05722
-1.04463
-0.978872
-0.893456
-0.80206
-0.712295
-0.628661
-0.553095
-0.485941
-0.426712
-0.374522
-0.328334
-0.287098
-0.249816
-0.21557
-0.183527
-0.152932
-0.123097
-0.09338
-0.0631758
-0.0318951
0.00104957
0.0362602
0.0743682
0.11605
0.162037
0.21313
0.270192
0.334143
0.405914
0.486358
0.576092
0.675206
0.782777
0.896045
1.00939
1.11386
1.19418
1.21398
1.13751
-1.25673
-1.32064
-1.26476
-1.14751
-1.01635
-0.888011
-0.770017
-0.665691
-0.575414
-0.498061
-0.431933
-0.375215
-0.326178
-0.283272
-0.245142
-0.210616
-0.178684
-0.14846
-0.119163
-0.0900793
-0.0605464
-0.0299233
0.00243019
0.0371762
0.0750224
0.116746
0.163222
0.215446
0.274566
0.341896
0.418925
0.507278
0.608611
0.724361
0.855246
1.00024
1.15503
1.3107
1.44856
1.51801
1.45701
-1.66754
-1.68085
-1.53754
-1.33734
-1.14116
-0.965413
-0.814488
-0.688141
-0.583605
-0.497329
-0.425872
-0.366207
-0.315789
-0.272522
-0.23469
-0.200885
-0.169938
-0.140862
-0.112804
-0.0850067
-0.05677
-0.027424
0.00370135
0.037305
0.0741454
0.115075
0.161079
0.213327
0.273225
0.342484
0.423189
0.517862
0.62948
0.761388
0.916948
1.09858
1.30593
1.53341
1.76231
1.92861
1.92917
-2.32074
-2.17826
-1.86788
-1.5401
-1.25549
-1.02225
-0.836003
-0.688908
-0.572783
-0.480553
-0.406547
-0.346357
-0.296593
-0.254651
-0.21851
-0.186584
-0.157599
-0.13051
-0.104436
-0.0786027
-0.0523062
-0.0248751
0.0043626
0.036112
0.0711479
0.110357
0.15479
0.20573
0.26478
0.333984
0.415982
0.51421
0.633142
0.778526
0.957511
1.17835
1.44897
1.77316
2.14016
2.48679
2.6622
-3.4506
-2.86288
-2.23633
-1.72625
-1.33261
-1.03785
-0.820289
-0.658879
-0.537459
-0.444621
-0.372351
-0.314981
-0.268463
-0.229859
-0.196992
-0.168207
-0.142214
-0.117978
-0.0946354
-0.0714417
-0.0477226
-0.022838
0.00385292
0.0330257
0.0654293
0.101932
0.14358
0.191682
0.247919
0.314513
0.394469
0.49194
0.612758
0.765192
0.961017
1.21696
1.55513
1.99804
2.56129
3.2443
3.89598
-5.67054
-3.76358
-2.50156
-1.76577
-1.28065
-0.95185
-0.728721
-0.573366
-0.461579
-0.378787
-0.31585
-0.266779
-0.227532
-0.195292
-0.16803
-0.144235
-0.122745
-0.102632
-0.0831339
-0.0635903
-0.0434072
-0.0220206
0.00113389
0.0266528
0.0551993
0.0875458
0.124631
0.167639
0.218115
0.278142
0.350624
0.439735
0.551681
0.695972
0.887752
1.15218
1.52941
2.07413
2.88254
4.23279
6.248
-9.44942
-4.64466
-2.37432
-1.46578
-0.990897
-0.707034
-0.531255
-0.416001
-0.335684
-0.27716
-0.233073
-0.198892
-0.171648
-0.149295
-0.130352
-0.113707
-0.0984968
-0.0840226
-0.0697024
-0.0550296
-0.0395442
-0.0228078
-0.00438092
0.0161992
0.0394446
0.0659478
0.0964225
0.131761
0.17312
0.222047
0.280699
0.352207
0.441346
0.555847
0.709322
0.928036
1.26242
1.8048
2.80766
5.19293
10.1183
)
;

boundaryField
{
    movingWall
    {
        type            zeroGradient;
    }
    fixedWalls
    {
        type            zeroGradient;
    }
    frontAndBack
    {
        type            empty;
    }
}


// ************************************************************************* //
