/*--------------------------------*- C++ -*----------------------------------*\
| =========                 |                                                 |
| \\      /  F ield         | OpenFOAM: The Open Source CFD Toolbox           |
|  \\    /   O peration     | Version:  2306                                  |
|   \\  /    A nd           | Website:  www.openfoam.com                      |
|    \\/     M anipulation  |                                                 |
\*---------------------------------------------------------------------------*/
FoamFile
{
    version     2.0;
    format      ascii;
    arch        "LSB;label=32;scalar=64";
    class       surfaceScalarField;
    location    "0.6";
    object      phi;
}
// * * * * * * * * * * * * * * * * * * * * * * * * * * * * * * * * * * * * * //

dimensions      [0 3 -1 0 0 0 0];

oriented        oriented;

internalField   nonuniform List<scalar> 
3280
(
2.34652e-09
-2.33807e-09
3.89906e-09
-1.55191e-09
2.4197e-09
1.47892e-09
-2.65129e-09
5.07121e-09
-1.11818e-08
8.53046e-09
-2.27393e-08
1.15576e-08
-3.67658e-08
1.40268e-08
-5.26646e-08
1.58988e-08
-6.98417e-08
1.7177e-08
-8.77273e-08
1.78856e-08
-1.05787e-07
1.80596e-08
-1.23526e-07
1.77395e-08
-1.40495e-07
1.69693e-08
-1.56289e-07
1.57939e-08
-1.70548e-07
1.42592e-08
-1.8296e-07
1.24115e-08
-1.93257e-07
1.02973e-08
-2.01221e-07
7.96393e-09
-2.0668e-07
5.45926e-09
-2.09513e-07
2.8326e-09
-2.09648e-07
1.3474e-10
-2.07066e-07
-2.5817e-09
-2.01804e-07
-5.26215e-09
-1.93954e-07
-7.85012e-09
-1.83666e-07
-1.02874e-08
-1.71152e-07
-1.25146e-08
-1.5668e-07
-1.44717e-08
-1.40581e-07
-1.60988e-08
-1.23244e-07
-1.73376e-08
-1.05111e-07
-1.81327e-08
-8.6678e-08
-1.84331e-08
-6.84842e-08
-1.81938e-08
-5.11055e-08
-1.73787e-08
-3.51422e-08
-1.59634e-08
-2.12019e-08
-1.39403e-08
-9.87419e-09
-1.13278e-08
-1.68343e-09
-8.19079e-09
2.99893e-09
-4.6824e-09
4.12566e-09
-1.12686e-09
2.35657e-09
1.76887e-09
2.35635e-09
1.60975e-09
-3.94769e-09
-6.13958e-10
6.71153e-10
-9.8009e-09
1.06667e-08
-2.70045e-08
2.22745e-08
-5.21224e-08
3.36479e-08
-8.43658e-08
4.3801e-08
-1.22566e-07
5.22269e-08
-1.65369e-07
5.87019e-08
-2.11356e-07
6.31635e-08
-2.59113e-07
6.56429e-08
-3.0728e-07
6.62267e-08
-3.54576e-07
6.5035e-08
-3.99815e-07
6.22086e-08
-4.41922e-07
5.79008e-08
-4.79936e-07
5.2273e-08
-5.13016e-07
4.54916e-08
-5.40446e-07
3.77274e-08
-5.61638e-07
2.91551e-08
-5.76132e-07
1.99538e-08
-5.83607e-07
1.03074e-08
-5.83878e-07
4.05686e-10
-5.76904e-07
-9.55542e-09
-5.62792e-07
-1.93737e-08
-5.41801e-07
-2.8841e-08
-5.14344e-07
-3.77443e-08
-4.80991e-07
-4.58676e-08
-4.42468e-07
-5.29945e-08
-3.99655e-07
-5.8912e-08
-3.53578e-07
-6.3415e-08
-3.05398e-07
-6.63118e-08
-2.564e-07
-6.74309e-08
-2.07965e-07
-6.66291e-08
-1.61542e-07
-6.3802e-08
-1.18607e-07
-5.88978e-08
-8.06084e-08
-5.1939e-08
-4.88797e-08
-4.30565e-08
-2.45178e-08
-3.25528e-08
-8.18635e-09
-2.10138e-08
1.78522e-10
-9.49156e-09
1.8181e-09
1.29523e-10
4.17431e-09
-1.31992e-09
-2.62798e-09
-1.04138e-08
9.76532e-09
-2.99061e-08
3.01593e-08
-6.06966e-08
5.30652e-08
-1.02517e-07
7.54684e-08
-1.54294e-07
9.55777e-08
-2.14441e-07
1.12374e-07
-2.81082e-07
1.25343e-07
-3.52207e-07
1.34288e-07
-4.25774e-07
1.3921e-07
-4.99789e-07
1.40242e-07
-5.72351e-07
1.37597e-07
-6.41686e-07
1.31544e-07
-7.06174e-07
1.22388e-07
-7.64358e-07
1.10457e-07
-8.14963e-07
9.60965e-08
-8.56899e-07
7.9663e-08
-8.8927e-07
6.1526e-08
-9.11381e-07
4.20651e-08
-9.22745e-07
2.16713e-08
-9.23087e-07
7.47802e-10
-9.12353e-07
-2.02899e-08
-8.90713e-07
-4.1014e-08
-8.58568e-07
-6.09857e-08
-8.16555e-07
-7.97578e-08
-7.65543e-07
-9.68792e-08
-7.06637e-07
-1.11901e-07
-6.41166e-07
-1.24383e-07
-5.70673e-07
-1.33908e-07
-4.96898e-07
-1.40088e-07
-4.21744e-07
-1.42584e-07
-3.47249e-07
-1.41125e-07
-2.75526e-07
-1.35525e-07
-2.08702e-07
-1.25722e-07
-1.48827e-07
-1.11814e-07
-9.77549e-08
-9.41289e-08
-5.69791e-08
-7.33288e-08
-2.74142e-08
-5.05789e-08
-9.11275e-09
-2.77932e-08
-9.33086e-10
-8.05003e-09
3.2412e-09
-4.84858e-09
2.22097e-09
-2.20617e-08
2.69782e-08
-5.31245e-08
6.12214e-08
-9.83353e-08
9.82762e-08
-1.57012e-07
1.34146e-07
-2.27718e-07
1.66283e-07
-3.08483e-07
1.9314e-07
-3.97011e-07
2.13871e-07
-4.90828e-07
2.28105e-07
-5.87408e-07
2.35791e-07
-6.84261e-07
2.37095e-07
-7.78996e-07
2.32332e-07
-8.69372e-07
2.2192e-07
-9.53326e-07
2.06342e-07
-1.029e-06
1.86135e-07
-1.09477e-06
1.61865e-07
-1.14924e-06
1.34128e-07
-1.19125e-06
1.0354e-07
-1.21992e-06
7.07395e-08
-1.23464e-06
3.63837e-08
-1.23504e-06
1.15065e-09
-1.22107e-06
-3.42616e-08
-1.19295e-06
-6.91356e-08
-1.15119e-06
-1.02738e-07
-1.09663e-06
-1.34322e-07
-1.03037e-06
-1.63139e-07
-9.53825e-07
-1.88446e-07
-8.68688e-07
-2.0952e-07
-7.76918e-07
-2.25677e-07
-6.80714e-07
-2.36292e-07
-5.82475e-07
-2.40823e-07
-4.84753e-07
-2.38847e-07
-3.90181e-07
-2.30097e-07
-3.01394e-07
-2.14509e-07
-2.20917e-07
-1.92291e-07
-1.51031e-07
-1.64015e-07
-9.36061e-08
-1.30754e-07
-4.98991e-08
-9.42859e-08
-2.03397e-08
-5.73528e-08
-4.31896e-09
-2.40708e-08
-1.07773e-09
-8.3997e-09
1.06211e-08
-3.40829e-08
5.26612e-08
-7.71881e-08
1.04326e-07
-1.37157e-07
1.58246e-07
-2.12707e-07
2.09696e-07
-3.01932e-07
2.55507e-07
-4.02452e-07
2.9366e-07
-5.11572e-07
3.22991e-07
-6.26422e-07
3.42955e-07
-7.44072e-07
3.53441e-07
-8.61631e-07
3.54653e-07
-9.76313e-07
3.47014e-07
-1.0855e-06
3.31105e-07
-1.18677e-06
3.07617e-07
-1.27796e-06
2.77319e-07
-1.35713e-06
2.41039e-07
-1.42265e-06
1.9965e-07
-1.47317e-06
1.5406e-07
-1.50764e-06
1.0521e-07
-1.52533e-06
5.40723e-08
-1.52583e-06
1.64934e-09
-1.50907e-06
-5.10274e-08
-1.4753e-06
-1.029e-07
-1.42515e-06
-1.52886e-07
-1.35958e-06
-1.99892e-07
-1.2799e-06
-2.42818e-07
-1.18777e-06
-2.80578e-07
-1.08517e-06
-3.12121e-07
-9.74397e-07
-3.36453e-07
-8.58015e-07
-3.52674e-07
-7.38824e-07
-3.60014e-07
-6.19793e-07
-3.57878e-07
-5.03985e-07
-3.45905e-07
-3.94461e-07
-3.24033e-07
-2.94165e-07
-2.92587e-07
-2.05788e-07
-2.52392e-07
-1.31613e-07
-2.04929e-07
-7.33529e-08
-1.52546e-07
-3.20039e-08
-9.87018e-08
-7.74926e-09
-4.83254e-08
-8.82696e-09
-1.17756e-08
2.23964e-08
-4.58292e-08
8.67149e-08
-1.0098e-07
1.59477e-07
-1.75708e-07
2.32974e-07
-2.6801e-07
3.01998e-07
-3.75422e-07
3.62919e-07
-4.95103e-07
4.1334e-07
-6.23948e-07
4.51837e-07
-7.5871e-07
4.77717e-07
-8.96099e-07
4.90831e-07
-1.03288e-06
4.91433e-07
-1.16594e-06
4.80071e-07
-1.29234e-06
4.57509e-07
-1.40939e-06
4.24664e-07
-1.51464e-06
3.8257e-07
-1.60594e-06
3.32344e-07
-1.68146e-06
2.75166e-07
-1.73967e-06
2.12272e-07
-1.77941e-06
1.44944e-07
-1.79984e-06
7.4505e-08
-1.80051e-06
2.32129e-09
-1.78134e-06
-7.02027e-08
-1.74261e-06
-1.41627e-07
-1.68501e-06
-2.10482e-07
-1.60962e-06
-2.75282e-07
-1.5179e-06
-3.34538e-07
-1.4117e-06
-3.86779e-07
-1.29324e-06
-4.30585e-07
-1.16507e-06
-4.6462e-07
-1.03007e-06
-4.87673e-07
-8.9137e-07
-4.98714e-07
-7.52292e-07
-4.96956e-07
-6.16274e-07
-4.81923e-07
-4.86769e-07
-4.53538e-07
-3.67129e-07
-4.12227e-07
-2.60474e-07
-3.59046e-07
-1.69563e-07
-2.9584e-07
-9.66613e-08
-2.25448e-07
-4.34519e-08
-1.51911e-07
-1.10197e-08
-8.07576e-08
-1.98466e-08
-1.49314e-08
3.73278e-08
-5.70714e-08
1.28855e-07
-1.24038e-07
2.26444e-07
-2.13335e-07
3.2227e-07
-3.22181e-07
4.10844e-07
-4.47487e-07
4.88225e-07
-5.859e-07
5.51753e-07
-7.33881e-07
5.99818e-07
-8.87801e-07
6.31636e-07
-1.04403e-06
6.47058e-07
-1.19901e-06
6.46417e-07
-1.34935e-06
6.30412e-07
-1.49186e-06
6.00014e-07
-1.62359e-06
5.56393e-07
-1.74189e-06
5.00869e-07
-1.84442e-06
4.34876e-07
-1.92918e-06
3.5993e-07
-1.99453e-06
2.7762e-07
-2.03918e-06
1.89597e-07
-2.06224e-06
9.75648e-08
-2.0632e-06
3.28281e-09
-2.04196e-06
-9.14415e-08
-1.99884e-06
-1.84756e-07
-1.93455e-06
-2.74771e-07
-1.85025e-06
-3.59576e-07
-1.74753e-06
-4.37258e-07
-1.62838e-06
-5.05929e-07
-1.4952e-06
-5.63765e-07
-1.35078e-06
-6.09049e-07
-1.19822e-06
-6.40228e-07
-1.04095e-06
-6.5598e-07
-8.82621e-07
-6.55289e-07
-7.27011e-07
-6.37533e-07
-5.7796e-07
-6.02589e-07
-4.39241e-07
-5.50945e-07
-3.14446e-07
-4.83841e-07
-2.06865e-07
-4.03421e-07
-1.19392e-07
-3.12921e-07
-5.44644e-08
-2.16839e-07
-1.40859e-08
-1.21136e-07
-3.39325e-08
-1.7888e-08
5.52158e-08
-6.77965e-08
1.78764e-07
-1.46273e-07
3.0492e-07
-2.49875e-07
4.25873e-07
-3.75024e-07
5.35993e-07
-5.17964e-07
6.31166e-07
-6.74791e-07
7.08579e-07
-8.415e-07
7.66528e-07
-1.01407e-06
8.04205e-07
-1.18852e-06
8.21514e-07
-1.36102e-06
8.18912e-07
-1.52789e-06
7.97286e-07
-1.68572e-06
7.57845e-07
-1.83137e-06
7.02039e-07
-1.962e-06
6.31503e-07
-2.07514e-06
5.48008e-07
-2.16864e-06
4.53431e-07
-2.24076e-06
3.49738e-07
-2.29013e-06
2.38967e-07
-2.31579e-06
1.23226e-07
-2.31719e-06
4.68738e-09
-2.29422e-06
-1.14417e-07
-2.24717e-06
-2.318e-07
-2.17682e-06
-3.45128e-07
-2.08435e-06
-4.52041e-07
-1.97144e-06
-5.50173e-07
-1.84018e-06
-6.37187e-07
-1.69312e-06
-7.10824e-07
-1.53322e-06
-7.68949e-07
-1.36382e-06
-8.09631e-07
-1.18859e-06
-8.31211e-07
-1.01147e-06
-8.32405e-07
-8.36601e-07
-8.12401e-07
-6.68213e-07
-7.70977e-07
-5.10526e-07
-7.08632e-07
-3.67644e-07
-6.26723e-07
-2.43448e-07
-5.27617e-07
-1.4151e-07
-4.14859e-07
-6.50523e-08
-2.93296e-07
-1.69746e-08
-1.69214e-07
-5.09071e-08
-2.06899e-08
7.59058e-08
-7.80891e-08
2.36163e-07
-1.67785e-07
3.94616e-07
-2.85435e-07
5.43523e-07
-4.2666e-07
6.77218e-07
-5.87018e-07
7.91524e-07
-7.62018e-07
8.8358e-07
-9.4717e-07
9.51679e-07
-1.13804e-06
9.95071e-07
-1.3303e-06
1.01378e-06
-1.51983e-06
1.00844e-06
-1.70271e-06
9.80168e-07
-1.87532e-06
9.30454e-07
-2.03434e-06
8.61063e-07
-2.17681e-06
7.73969e-07
-2.3001e-06
6.71305e-07
-2.402e-06
5.5533e-07
-2.48067e-06
4.28401e-07
-2.53466e-06
2.92962e-07
-2.56297e-06
1.51536e-07
-2.56501e-06
6.7232e-09
-2.54062e-06
-1.38806e-07
-2.4901e-06
-2.82315e-07
-2.41422e-06
-4.2101e-07
-2.3142e-06
-5.5206e-07
-2.19175e-06
-6.72624e-07
-2.04905e-06
-7.7989e-07
-1.88874e-06
-8.71127e-07
-1.71394e-06
-9.43748e-07
-1.52818e-06
-9.95397e-07
-1.33536e-06
-1.02403e-06
-1.13971e-06
-1.02805e-06
-9.45725e-07
-1.00639e-06
-7.58044e-07
-9.58658e-07
-5.8137e-07
-8.85306e-07
-4.20363e-07
-7.87729e-07
-2.79539e-07
-6.68441e-07
-1.63189e-07
-5.31209e-07
-7.53356e-08
-3.8115e-07
-1.97399e-08
-2.24809e-07
-7.0647e-08
-2.33858e-08
9.92916e-08
-8.80702e-08
3.00847e-07
-1.88761e-07
4.95307e-07
-3.20253e-07
6.75015e-07
-4.77375e-07
8.3434e-07
-6.54983e-07
9.69131e-07
-8.47982e-07
1.07658e-06
-1.05137e-06
1.15507e-06
-1.26028e-06
1.20398e-06
-1.47005e-06
1.22355e-06
-1.67625e-06
1.21464e-06
-1.87475e-06
1.17866e-06
-2.06172e-06
1.11743e-06
-2.23372e-06
1.03306e-06
-2.38764e-06
9.27892e-07
-2.52079e-06
8.0445e-07
-2.63085e-06
6.65388e-07
-2.71592e-06
5.13471e-07
-2.77451e-06
3.51557e-07
-2.80557e-06
1.82593e-07
-2.80846e-06
9.61106e-09
-2.78299e-06
-1.64273e-07
-2.72944e-06
-3.35866e-07
-2.64855e-06
-5.01902e-07
-2.54154e-06
-6.59068e-07
-2.41014e-06
-8.04026e-07
-2.25656e-06
-9.33464e-07
-2.08355e-06
-1.04415e-06
-1.8943e-06
-1.13299e-06
-1.69253e-06
-1.19717e-06
-1.48235e-06
-1.23421e-06
-1.2683e-06
-1.2421e-06
-1.05521e-06
-1.21948e-06
-8.48157e-07
-1.16571e-06
-6.52364e-07
-1.0811e-06
-4.73086e-07
-9.67007e-07
-3.15518e-07
-8.26009e-07
-1.84705e-07
-6.62022e-07
-8.54792e-08
-4.80376e-07
-2.24429e-08
-2.87846e-07
-9.30899e-08
-2.60216e-08
1.25313e-07
-9.78683e-08
3.72694e-07
-2.09416e-07
6.06855e-07
-3.54621e-07
8.20221e-07
-5.27525e-07
1.00724e-06
-7.2227e-07
1.16388e-06
-9.33141e-07
1.28745e-06
-1.1546e-06
1.37653e-06
-1.38136e-06
1.43074e-06
-1.60838e-06
1.45057e-06
-1.83095e-06
1.43721e-06
-2.04473e-06
1.39244e-06
-2.24572e-06
1.31843e-06
-2.43034e-06
1.21768e-06
-2.5954e-06
1.09295e-06
-2.73813e-06
9.47176e-07
-2.85616e-06
7.83416e-07
-2.94754e-06
6.04854e-07
-3.01075e-06
4.14769e-07
-3.04469e-06
2.1653e-07
-3.04868e-06
1.36011e-08
-3.02249e-06
-1.90459e-07
-2.96636e-06
-3.91998e-07
-2.88098e-06
-5.87279e-07
-2.76756e-06
-7.72494e-07
-2.62779e-06
-9.43797e-07
-2.4639e-06
-1.09735e-06
-2.27867e-06
-1.22937e-06
-2.0754e-06
-1.33626e-06
-1.85793e-06
-1.41465e-06
-1.63059e-06
-1.46155e-06
-1.39818e-06
-1.47451e-06
-1.16592e-06
-1.45174e-06
-9.39336e-07
-1.3923e-06
-7.24192e-07
-1.29624e-06
-5.26387e-07
-1.16481e-06
-3.51836e-07
-1.00056e-06
-2.06372e-07
-8.07485e-07
-9.56621e-08
-5.91086e-07
-2.51443e-08
-3.58364e-07
-1.18234e-07
-2.86384e-08
1.53951e-07
-1.07607e-07
4.51662e-07
-2.29965e-07
7.29213e-07
-3.8884e-07
9.79095e-07
-5.77478e-07
1.19588e-06
-7.89298e-07
1.3757e-06
-1.01795e-06
1.5161e-06
-1.25734e-06
1.61593e-06
-1.50174e-06
1.67513e-06
-1.74576e-06
1.69458e-06
-1.9844e-06
1.67586e-06
-2.21311e-06
1.62115e-06
-2.42775e-06
1.53307e-06
-2.62463e-06
1.41456e-06
-2.8005e-06
1.26882e-06
-2.95253e-06
1.09921e-06
-3.07833e-06
9.09221e-07
-3.17594e-06
7.02461e-07
-3.24379e-06
4.82623e-07
-3.28076e-06
2.53496e-07
-3.28613e-06
1.89679e-08
-3.25961e-06
-2.16971e-07
-3.20139e-06
-4.50219e-07
-3.1121e-06
-6.76568e-07
-2.99288e-06
-8.91718e-07
-2.84538e-06
-1.0913e-06
-2.6718e-06
-1.27093e-06
-2.47491e-06
-1.42626e-06
-2.25808e-06
-1.55309e-06
-2.02525e-06
-1.64748e-06
-1.78094e-06
-1.70586e-06
-1.53024e-06
-1.72521e-06
-1.27871e-06
-1.70327e-06
-1.03237e-06
-1.63864e-06
-7.97563e-07
-1.53105e-06
-5.80866e-07
-1.38151e-06
-3.88961e-07
-1.19246e-06
-2.28515e-07
-9.67931e-07
-1.06062e-07
-7.13539e-07
-2.79015e-08
-4.36525e-07
-1.46136e-07
-3.12723e-08
1.85224e-07
-1.17398e-07
5.37788e-07
-2.5061e-07
8.62425e-07
-4.23193e-07
1.15168e-06
-6.27584e-07
1.40027e-06
-8.56458e-07
1.60457e-06
-1.1028e-06
1.76244e-06
-1.35999e-06
1.87311e-06
-1.6218e-06
1.93695e-06
-1.8825e-06
1.95528e-06
-2.13684e-06
1.93019e-06
-2.38006e-06
1.86436e-06
-2.6079e-06
1.76091e-06
-2.81659e-06
1.62326e-06
-3.00286e-06
1.45508e-06
-3.16385e-06
1.2602e-06
-3.29718e-06
1.04255e-06
-3.40088e-06
8.06156e-07
-3.47338e-06
5.5512e-07
-3.51352e-06
2.93639e-07
-3.52056e-06
2.60041e-08
-3.49415e-06
-2.43377e-07
-3.4344e-06
-5.09973e-07
-3.34185e-06
-7.69117e-07
-3.21755e-06
-1.01602e-06
-3.06306e-06
-1.24579e-06
-2.88052e-06
-1.45347e-06
-2.67266e-06
-1.63412e-06
-2.44284e-06
-1.78291e-06
-2.19509e-06
-1.89523e-06
-1.9341e-06
-1.96685e-06
-1.66519e-06
-1.99412e-06
-1.39433e-06
-1.97413e-06
-1.128e-06
-1.90497e-06
-8.7316e-07
-1.78589e-06
-6.37111e-07
-1.61756e-06
-4.27356e-07
-1.40222e-06
-2.5145e-07
-1.14384e-06
-1.1685e-07
-8.48139e-07
-3.07675e-08
-5.22608e-07
-1.76903e-07
-3.39551e-08
2.19179e-07
-1.27343e-07
6.31175e-07
-2.71536e-07
1.00662e-06
-4.57943e-07
1.33809e-06
-6.78161e-07
1.62049e-06
-9.24091e-07
1.8505e-06
-1.18805e-06
2.0264e-06
-1.46282e-06
2.14788e-06
-1.74174e-06
2.21587e-06
-2.01872e-06
2.23226e-06
-2.28825e-06
2.19973e-06
-2.54541e-06
2.12153e-06
-2.78586e-06
2.00135e-06
-3.00578e-06
1.84318e-06
-3.2019e-06
1.6512e-06
-3.37139e-06
1.42969e-06
-3.51189e-06
1.18305e-06
-3.62145e-06
9.15724e-07
-3.69854e-06
6.32207e-07
-3.74198e-06
3.37079e-07
-3.75099e-06
3.50109e-08
-3.72516e-06
-2.69204e-07
-3.66451e-06
-5.70628e-07
-3.56946e-06
-8.64161e-07
-3.44094e-06
-1.14454e-06
-3.28038e-06
-1.40635e-06
-3.08979e-06
-1.64406e-06
-2.87181e-06
-1.8521e-06
-2.62978e-06
-2.02495e-06
-2.36773e-06
-2.15727e-06
-2.09049e-06
-2.2441e-06
-1.80361e-06
-2.281e-06
-1.5134e-06
-2.26433e-06
-1.22687e-06
-2.1915e-06
-9.51608e-07
-2.06115e-06
-6.95676e-07
-1.87349e-06
-4.67459e-07
-1.63044e-06
-2.75477e-07
-1.33582e-06
-1.28188e-07
-9.95428e-07
-3.3792e-08
-6.17004e-07
-2.10695e-07
-3.67151e-08
2.55894e-07
-1.37534e-07
7.31994e-07
-2.92911e-07
1.162e-06
-4.93324e-07
1.5385e-06
-7.29483e-07
1.85665e-06
-9.92478e-07
2.1135e-06
-1.27391e-06
2.30783e-06
-1.566e-06
2.43996e-06
-1.8616e-06
2.51147e-06
-2.15428e-06
2.52495e-06
-2.43833e-06
2.48377e-06
-2.70867e-06
2.39187e-06
-2.96091e-06
2.2536e-06
-3.19126e-06
2.07353e-06
-3.39647e-06
1.8564e-06
-3.5738e-06
1.60702e-06
-3.72095e-06
1.3302e-06
-3.83604e-06
1.03082e-06
-3.91757e-06
7.13737e-07
-3.96438e-06
3.83888e-07
-3.97565e-06
4.62855e-08
-3.95093e-06
-2.93932e-07
-3.89009e-06
-6.31461e-07
-3.79345e-06
-9.60802e-07
-3.66175e-06
-1.27624e-06
-3.49624e-06
-1.57186e-06
-3.29876e-06
-1.84154e-06
-3.07179e-06
-2.07906e-06
-2.81856e-06
-2.27818e-06
-2.54308e-06
-2.43275e-06
-2.25024e-06
-2.53694e-06
-1.9458e-06
-2.58544e-06
-1.63639e-06
-2.57374e-06
-1.32953e-06
-2.49836e-06
-1.03346e-06
-2.35722e-06
-7.57063e-07
-2.14989e-06
-5.09681e-07
-1.87782e-06
-3.00882e-07
-1.54462e-06
-1.40229e-07
-1.15608e-06
-3.70219e-08
-7.20211e-07
-2.47717e-07
-3.95789e-08
2.95473e-07
-1.48057e-07
8.40472e-07
-3.1489e-07
1.32883e-06
-5.29551e-07
1.75316e-06
-7.81793e-07
2.10889e-06
-1.06184e-06
2.39355e-06
-1.36056e-06
2.60655e-06
-1.66955e-06
2.74896e-06
-1.98123e-06
2.82315e-06
-2.28884e-06
2.83255e-06
-2.58645e-06
2.78138e-06
-2.86893e-06
2.67435e-06
-3.13188e-06
2.51655e-06
-3.37156e-06
2.31321e-06
-3.58484e-06
2.06968e-06
-3.76909e-06
1.79127e-06
-3.92215e-06
1.48327e-06
-4.04225e-06
1.15091e-06
-4.12795e-06
7.99433e-07
-4.17812e-06
4.34061e-07
-4.19194e-06
6.01047e-08
-4.16887e-06
-3.17004e-07
-4.10868e-06
-6.91649e-07
-4.0115e-06
-1.05798e-06
-3.87786e-06
-1.40988e-06
-3.70879e-06
-1.74093e-06
-3.50587e-06
-2.04446e-06
-3.27136e-06
-2.31357e-06
-3.0083e-06
-2.54124e-06
-2.7206e-06
-2.72045e-06
-2.41313e-06
-2.8444e-06
-2.0918e-06
-2.90678e-06
-1.76354e-06
-2.90199e-06
-1.43635e-06
-2.82555e-06
-1.11916e-06
-2.67442e-06
-8.21719e-07
-2.44733e-06
-5.54399e-07
-2.14514e-06
-3.27933e-07
-1.77108e-06
-1.53119e-07
-1.33089e-06
-4.05022e-08
-8.32828e-07
-2.8822e-07
-4.2573e-08
3.38046e-07
-1.59e-07
9.56899e-07
-3.37629e-07
1.50746e-06
-5.66828e-07
1.98236e-06
-8.35305e-07
2.37737e-06
-1.13236e-06
2.6906e-06
-1.44805e-06
2.92225e-06
-1.77338e-06
3.07428e-06
-2.10029e-06
3.15006e-06
-2.42174e-06
3.15401e-06
-2.73166e-06
3.09129e-06
-3.02488e-06
2.96757e-06
-3.29707e-06
2.78874e-06
-3.54463e-06
2.56078e-06
-3.7646e-06
2.28965e-06
-3.95456e-06
1.98123e-06
-4.11251e-06
1.64122e-06
-4.23685e-06
1.27526e-06
-4.32627e-06
8.88843e-07
-4.37969e-06
4.87481e-07
-4.39628e-06
7.67038e-08
-4.37546e-06
-3.37831e-07
-4.31684e-06
-7.50265e-07
-4.22036e-06
-1.15446e-06
-4.0863e-06
-1.54394e-06
-3.91536e-06
-1.91187e-06
-3.70882e-06
-2.251e-06
-3.46862e-06
-2.55377e-06
-3.19752e-06
-2.81234e-06
-2.89923e-06
-3.01875e-06
-2.57851e-06
-3.16512e-06
-2.24132e-06
-3.24397e-06
-1.89486e-06
-3.24845e-06
-1.54756e-06
-3.17285e-06
-1.20906e-06
-3.01292e-06
-8.9003e-07
-2.76636e-06
-6.01964e-07
-2.43321e-06
-3.5689e-07
-2.01616e-06
-1.67003e-07
-1.52078e-06
-4.42783e-08
-9.55553e-07
-3.32498e-07
-4.57264e-08
3.83772e-07
-1.70455e-07
1.08163e-06
-3.61292e-07
1.69829e-06
-6.05364e-07
2.22643e-06
-8.90222e-07
2.66222e-06
-1.20414e-06
3.00452e-06
-1.53636e-06
3.25447e-06
-1.87721e-06
3.41513e-06
-2.21821e-06
3.49106e-06
-2.55206e-06
3.48786e-06
-2.8726e-06
3.41184e-06
-3.17472e-06
3.26969e-06
-3.45424e-06
3.06825e-06
-3.70778e-06
2.81432e-06
-3.93264e-06
2.51452e-06
-4.12668e-06
2.17526e-06
-4.28817e-06
1.80271e-06
-4.41571e-06
1.4028e-06
-4.50817e-06
9.81297e-07
-4.56457e-06
5.43886e-07
-4.58412e-06
9.62518e-08
-4.56615e-06
-3.55807e-07
-4.51014e-06
-8.06274e-07
-4.41579e-06
-1.24881e-06
-4.28307e-06
-1.67666e-06
-4.11232e-06
-2.08261e-06
-3.90442e-06
-2.45891e-06
-3.66087e-06
-2.79732e-06
-3.38404e-06
-3.08917e-06
-3.0773e-06
-3.32549e-06
-2.74521e-06
-3.49721e-06
-2.39367e-06
-3.5955e-06
-2.03005e-06
-3.61208e-06
-1.66318e-06
-3.53971e-06
-1.30339e-06
-3.37271e-06
-9.62319e-07
-3.10743e-06
-6.52698e-07
-2.74283e-06
-3.88003e-07
-2.28085e-06
-1.82028e-07
-1.72676e-06
-4.83965e-08
-1.08918e-06
-3.80894e-07
-4.90734e-08
4.32846e-07
-1.82531e-07
1.21509e-06
-3.86063e-07
1.90183e-06
-6.45388e-07
2.48576e-06
-9.46753e-07
2.96359e-06
-1.27731e-06
3.33507e-06
-1.62538e-06
3.60254e-06
-1.98064e-06
3.7704e-06
-2.3342e-06
3.84461e-06
-2.67855e-06
3.83221e-06
-3.00752e-06
3.74081e-06
-3.31616e-06
3.57833e-06
-3.60054e-06
3.35263e-06
-3.85762e-06
3.0714e-06
-4.08506e-06
2.74197e-06
-4.2811e-06
2.3713e-06
-4.44434e-06
1.96595e-06
-4.5737e-06
1.53216e-06
-4.66825e-06
1.07585e-06
-4.72719e-06
6.02825e-07
-4.74976e-06
1.18821e-07
-4.73524e-06
-3.70324e-07
-4.68297e-06
-8.58542e-07
-4.59239e-06
-1.3394e-06
-4.46309e-06
-1.80596e-06
-4.295e-06
-2.2507e-06
-4.08846e-06
-2.66545e-06
-3.84446e-06
-3.04132e-06
-3.56482e-06
-3.36881e-06
-3.25243e-06
-3.63787e-06
-2.9115e-06
-3.83815e-06
-2.54772e-06
-3.95928e-06
-2.16849e-06
-3.9913e-06
-1.783e-06
-3.9252e-06
-1.40223e-06
-3.75348e-06
-1.03884e-06
-3.47082e-06
-7.06903e-07
-3.07476e-06
-4.21528e-07
-2.56623e-06
-1.98344e-07
-1.94994e-06
-5.29071e-08
-1.23462e-06
-4.33802e-07
-5.26571e-08
4.85503e-07
-1.95364e-07
1.35779e-06
-4.12173e-07
2.11864e-06
-6.87176e-07
2.76076e-06
-1.00513e-06
3.28154e-06
-1.35193e-06
3.68187e-06
-1.71492e-06
3.96553e-06
-2.08311e-06
4.13858e-06
-2.4472e-06
4.2087e-06
-2.79957e-06
4.18458e-06
-3.13417e-06
4.07541e-06
-3.4463e-06
3.89045e-06
-3.73242e-06
3.63875e-06
-3.98995e-06
3.32893e-06
-4.21707e-06
2.96908e-06
-4.41246e-06
2.56669e-06
-4.5752e-06
2.12869e-06
-4.70457e-06
1.66153e-06
-4.79996e-06
1.17124e-06
-4.86075e-06
6.63618e-07
-4.88629e-06
1.44353e-07
-4.87581e-06
-3.80801e-07
-4.8285e-06
-9.05849e-07
-4.74351e-06
-1.42438e-06
-4.62005e-06
-1.92942e-06
-4.45751e-06
-2.41325e-06
-4.25562e-06
-2.86733e-06
-4.0147e-06
-3.28224e-06
-3.73589e-06
-3.64762e-06
-3.42142e-06
-3.95234e-06
-3.07493e-06
-4.18464e-06
-2.70175e-06
-4.33246e-06
-2.30915e-06
-4.38389e-06
-1.90655e-06
-4.3278e-06
-1.50553e-06
-4.1545e-06
-1.11978e-06
-3.85657e-06
-7.64868e-07
-3.42968e-06
-4.57729e-07
-2.87337e-06
-2.1612e-07
-2.19155e-06
-5.78662e-08
-1.39288e-06
-4.91668e-07
-5.65339e-08
5.42037e-07
-2.09129e-07
1.51039e-06
-4.39913e-07
2.34942e-06
-7.31072e-07
3.05192e-06
-1.06565e-06
3.61612e-06
-1.4281e-06
4.04433e-06
-1.80473e-06
4.34216e-06
-2.18385e-06
4.5177e-06
-2.55584e-06
4.58069e-06
-2.91308e-06
4.54183e-06
-3.24974e-06
4.41207e-06
-3.56155e-06
4.20226e-06
-3.84553e-06
3.92273e-06
-4.09971e-06
3.58311e-06
-4.32289e-06
3.19226e-06
-4.51438e-06
2.75818e-06
-4.67381e-06
2.28812e-06
-4.80093e-06
1.78865e-06
-4.89552e-06
1.26582e-06
-4.95721e-06
7.25311e-07
-4.98548e-06
1.72622e-07
-4.97957e-06
-3.86709e-07
-4.93851e-06
-9.46906e-07
-4.86115e-06
-1.50174e-06
-4.74626e-06
-2.04432e-06
-4.59261e-06
-2.56689e-06
-4.39926e-06
-3.06069e-06
-4.16568e-06
-3.51581e-06
-3.89216e-06
-3.92115e-06
-3.58005e-06
-4.26445e-06
-3.23223e-06
-4.53247e-06
-2.8534e-06
-4.71129e-06
-2.45052e-06
-4.78678e-06
-2.03302e-06
-4.7453e-06
-1.61302e-06
-4.5745e-06
-1.20526e-06
-4.26433e-06
-8.26874e-07
-3.80807e-06
-4.96895e-07
-3.20335e-06
-2.35546e-07
-2.4529e-06
-6.334e-08
-1.56508e-06
-5.55008e-07
-6.07799e-08
6.02816e-07
-2.24059e-07
1.67367e-06
-4.69669e-07
2.59503e-06
-7.77526e-07
3.35977e-06
-1.12866e-06
3.96725e-06
-1.50592e-06
4.42159e-06
-1.89444e-06
4.73069e-06
-2.28189e-06
4.90514e-06
-2.6584e-06
4.95721e-06
-3.0165e-06
4.89992e-06
-3.35076e-06
4.74633e-06
-3.65754e-06
4.50904e-06
-3.9346e-06
4.19979e-06
-4.18078e-06
3.82929e-06
-4.39565e-06
3.40713e-06
-4.57928e-06
2.94181e-06
-4.73197e-06
2.44082e-06
-4.85408e-06
1.91075e-06
-4.9458e-06
1.35755e-06
-5.00712e-06
7.86634e-07
-5.03769e-06
2.03194e-07
-5.03679e-06
-3.87612e-07
-5.00331e-06
-9.8039e-07
-4.93579e-06
-1.56926e-06
-4.8325e-06
-2.1476e-06
-4.69159e-06
-2.7078e-06
-4.51128e-06
-3.24101e-06
-4.29009e-06
-3.737e-06
-4.02723e-06
-4.18401e-06
-3.72297e-06
-4.5687e-06
-3.37913e-06
-4.87631e-06
-2.99952e-06
-5.0909e-06
-2.59046e-06
-5.19583e-06
-2.16122e-06
-5.17454e-06
-1.72425e-06
-5.01147e-06
-1.2953e-06
-4.69328e-06
-8.93206e-07
-4.21017e-06
-5.39353e-07
-3.5572e-06
-2.56847e-07
-2.7354e-06
-6.9409e-08
-1.75252e-06
-6.24417e-07
-6.54991e-08
6.68315e-07
-2.40471e-07
1.84864e-06
-5.01954e-07
2.85651e-06
-8.27123e-07
3.68494e-06
-1.19462e-06
4.33475e-06
-1.58547e-06
4.81243e-06
-1.98357e-06
5.12879e-06
-2.37595e-06
5.29752e-06
-2.75267e-06
5.33393e-06
-3.10659e-06
5.25383e-06
-3.43293e-06
5.07268e-06
-3.72893e-06
4.80504e-06
-3.9933e-06
4.46416e-06
-4.22587e-06
4.06186e-06
-4.42721e-06
3.60847e-06
-4.59827e-06
3.11288e-06
-4.74017e-06
2.58271e-06
-4.85391e-06
2.0245e-06
-4.94027e-06
1.4439e-06
-4.9996e-06
8.45969e-07
-5.03181e-06
2.35396e-07
-5.03622e-06
-3.83198e-07
-5.01163e-06
-1.00498e-06
-4.95628e-06
-1.62461e-06
-4.86794e-06
-2.23594e-06
-4.74406e-06
-2.83168e-06
-4.58193e-06
-3.40314e-06
-4.37899e-06
-3.93994e-06
-4.13319e-06
-4.42981e-06
-3.84343e-06
-4.85846e-06
-3.51015e-06
-5.20959e-06
-3.13593e-06
-5.46512e-06
-2.72612e-06
-5.60564e-06
-2.28944e-06
-5.61122e-06
-1.83846e-06
-5.46245e-06
-1.38983e-06
-5.14191e-06
-9.64164e-07
-4.63584e-06
-5.85492e-07
-3.93587e-06
-2.80305e-07
-3.04059e-06
-7.61753e-08
-1.95665e-06
-7.00592e-07
-7.08352e-08
7.39151e-07
-2.58795e-07
2.0366e-06
-5.37455e-07
3.13517e-06
-8.8063e-07
4.02812e-06
-1.26412e-06
4.71824e-06
-1.66684e-06
5.21515e-06
-2.07141e-06
5.53336e-06
-2.46433e-06
5.69044e-06
-2.83579e-06
5.70539e-06
-3.17926e-06
5.5973e-06
-3.49093e-06
5.38436e-06
-3.76917e-06
5.08328e-06
-4.01395e-06
4.70893e-06
-4.22632e-06
4.27423e-06
-4.40801e-06
3.79015e-06
-4.56102e-06
3.26589e-06
-4.68738e-06
2.70907e-06
-4.78887e-06
2.126e-06
-4.86689e-06
1.52192e-06
-4.92224e-06
9.01328e-07
-4.95513e-06
2.68279e-07
-4.965e-06
-3.73329e-07
-4.95056e-06
-1.01941e-06
-4.9098e-06
-1.66538e-06
-4.83999e-06
-2.30575e-06
-4.73784e-06
-2.93383e-06
-4.59966e-06
-3.54131e-06
-4.42168e-06
-4.11793e-06
-4.20037e-06
-4.65112e-06
-3.93302e-06
-5.12581e-06
-3.61835e-06
-5.52426e-06
-3.25727e-06
-5.8262e-06
-2.85367e-06
-6.00923e-06
-2.41533e-06
-6.04956e-06
-1.95455e-06
-5.92323e-06
-1.48865e-06
-5.6078e-06
-1.04007e-06
-5.08442e-06
-6.3579e-07
-4.34015e-06
-3.06279e-07
-3.3701e-06
-8.37725e-08
-2.17916e-06
-7.84365e-07
-7.69875e-08
8.16138e-07
-2.79616e-07
2.23923e-06
-5.77087e-07
3.43264e-06
-9.39034e-07
4.39007e-06
-1.33784e-06
5.11705e-06
-1.75004e-06
5.62735e-06
-2.15694e-06
5.94026e-06
-2.54471e-06
6.07821e-06
-2.904e-06
6.06468e-06
-3.22928e-06
5.92257e-06
-3.51807e-06
5.67315e-06
-3.77026e-06
5.33547e-06
-3.98734e-06
4.92602e-06
-4.17185e-06
4.45874e-06
-4.32685e-06
3.94515e-06
-4.45554e-06
3.39458e-06
-4.56098e-06
2.81451e-06
-4.64579e-06
2.21081e-06
-4.71205e-06
1.58817e-06
-4.76108e-06
9.50359e-07
-4.79341e-06
3.00607e-07
-4.80866e-06
-3.58075e-07
-4.80553e-06
-1.02254e-06
-4.78177e-06
-1.68914e-06
-4.7342e-06
-2.35332e-06
-4.6588e-06
-3.00923e-06
-4.55088e-06
-3.64923e-06
-4.40535e-06
-4.26346e-06
-4.21706e-06
-4.83941e-06
-3.9814e-06
-5.36147e-06
-3.69499e-06
-5.81067e-06
-3.35658e-06
-6.16461e-06
-2.96808e-06
-6.39774e-06
-2.53567e-06
-6.48197e-06
-2.07088e-06
-6.38802e-06
-1.59137e-06
-6.08731e-06
-1.12127e-06
-5.55452e-06
-6.90849e-07
-4.77057e-06
-3.35241e-07
-3.72571e-06
-9.238e-08
-2.42202e-06
-8.76745e-07
-8.42351e-08
9.00373e-07
-3.03734e-07
2.45873e-06
-6.2206e-07
3.75097e-06
-1.00358e-06
4.77158e-06
-1.41655e-06
5.53002e-06
-1.83484e-06
6.04564e-06
-2.23854e-06
6.34396e-06
-2.61384e-06
6.45351e-06
-2.95228e-06
6.40313e-06
-3.24985e-06
6.22014e-06
-3.50593e-06
5.92923e-06
-3.72229e-06
5.55183e-06
-3.90231e-06
5.10603e-06
-4.05023e-06
4.60666e-06
-4.17064e-06
4.06556e-06
-4.26807e-06
3.49201e-06
-4.34663e-06
2.89308e-06
-4.40988e-06
2.27406e-06
-4.46057e-06
1.63886e-06
-4.50059e-06
9.90379e-07
-4.53084e-06
3.30857e-07
-4.55117e-06
-3.37748e-07
-4.56031e-06
-1.0134e-06
-4.55585e-06
-1.69359e-06
-4.53423e-06
-2.37494e-06
-4.49079e-06
-3.05267e-06
-4.41984e-06
-3.72017e-06
-4.31493e-06
-4.36837e-06
-4.1692e-06
-4.98515e-06
-3.97588e-06
-5.55479e-06
-3.72912e-06
-6.05743e-06
-3.42497e-06
-6.46876e-06
-3.06267e-06
-6.76004e-06
-2.64606e-06
-6.89857e-06
-2.18514e-06
-6.84894e-06
-1.6973e-06
-6.57516e-06
-1.20815e-06
-6.04367e-06
-7.51445e-07
-5.22728e-06
-3.67827e-07
-4.10933e-06
-1.02245e-07
-2.6876e-06
-9.7899e-07
-9.2972e-08
9.93345e-07
-3.32246e-07
2.698e-06
-6.73968e-07
4.09269e-06
-1.07578e-06
5.1734e-06
-1.50099e-06
5.95523e-06
-1.92057e-06
6.46522e-06
-2.31367e-06
6.73705e-06
-2.66701e-06
6.80685e-06
-2.97375e-06
6.70987e-06
-3.23206e-06
6.47845e-06
-3.44373e-06
6.1409e-06
-3.61295e-06
5.72105e-06
-3.74529e-06
5.23837e-06
-3.84695e-06
4.70831e-06
-3.92416e-06
4.14277e-06
-3.98281e-06
3.55066e-06
-4.02816e-06
2.93842e-06
-4.06463e-06
2.31053e-06
-4.09569e-06
1.66992e-06
-4.12377e-06
1.01846e-06
-4.15017e-06
3.57253e-07
-4.17499e-06
-3.12925e-07
-4.19709e-06
-9.91297e-07
-4.21401e-06
-1.67668e-06
-4.22191e-06
-2.36704e-06
-4.21558e-06
-3.059e-06
-4.18847e-06
-3.74728e-06
-4.13284e-06
-4.424e-06
-4.04004e-06
-5.07795e-06
-3.90101e-06
-5.69382e-06
-3.70706e-06
-6.25137e-06
-3.45101e-06
-6.72482e-06
-3.12863e-06
-7.08243e-06
-2.74047e-06
-7.28672e-06
-2.29395e-06
-7.29546e-06
-1.8053e-06
-7.06382e-06
-1.30105e-06
-6.54791e-06
-8.18578e-07
-5.70975e-06
-4.04907e-07
-4.523e-06
-1.13718e-07
-2.97879e-06
-1.09271e-06
-1.03763e-07
1.09711e-06
-3.6666e-07
2.9609e-06
-7.34881e-07
4.46091e-06
-1.15742e-06
5.59594e-06
-1.59169e-06
6.3895e-06
-2.0057e-06
6.87923e-06
-2.37819e-06
7.10955e-06
-2.69735e-06
7.126e-06
-2.95888e-06
6.9714e-06
-3.16401e-06
6.68359e-06
-3.31765e-06
6.29454e-06
-3.42688e-06
5.83028e-06
-3.49982e-06
5.31131e-06
-3.54477e-06
4.75326e-06
-3.56969e-06
4.16769e-06
-3.58182e-06
3.5628e-06
-3.58748e-06
2.94408e-06
-3.59189e-06
2.31494e-06
-3.59919e-06
1.67721e-06
-3.61228e-06
1.03155e-06
-3.63286e-06
3.77835e-07
-3.66133e-06
-2.84449e-07
-3.69675e-06
-9.55882e-07
-3.73671e-06
-1.63672e-06
-3.77727e-06
-2.32648e-06
-3.81288e-06
-3.02339e-06
-3.83632e-06
-3.72384e-06
-3.83873e-06
-4.4216e-06
-3.80976e-06
-5.10691e-06
-3.73803e-06
-5.76555e-06
-3.61178e-06
-6.37762e-06
-3.42002e-06
-6.91657e-06
-3.15424e-06
-7.34822e-06
-2.81053e-06
-7.63043e-06
-2.39237e-06
-7.71362e-06
-1.91345e-06
-7.54274e-06
-1.40025e-06
-7.0611e-06
-8.93536e-07
-6.21647e-06
-4.47693e-07
-4.96884e-06
-1.27303e-07
-3.29918e-06
-1.22001e-06
-1.17431e-07
1.21454e-06
-4.09062e-07
3.25253e-06
-8.07445e-07
4.85929e-06
-1.25041e-06
6.0389e-06
-1.68847e-06
6.82755e-06
-2.08701e-06
7.27777e-06
-2.42541e-06
7.44795e-06
-2.69465e-06
7.39524e-06
-2.8943e-06
7.17105e-06
-3.02973e-06
6.81902e-06
-3.10975e-06
6.37455e-06
-3.14481e-06
5.86535e-06
-3.14582e-06
5.31232e-06
-3.12327e-06
4.73071e-06
-3.08677e-06
4.13119e-06
-3.04479e-06
3.52081e-06
-3.00453e-06
2.90381e-06
-2.97189e-06
2.28231e-06