/*--------------------------------*- C++ -*----------------------------------*\
| =========                 |                                                 |
| \\      /  F ield         | OpenFOAM: The Open Source CFD Toolbox           |
|  \\    /   O peration     | Version:  2306                                  |
|   \\  /    A nd           | Website:  www.openfoam.com                      |
|    \\/     M anipulation  |                                                 |
\*---------------------------------------------------------------------------*/
FoamFile
{
    version     2.0;
    format      ascii;
    arch        "LSB;label=32;scalar=64";
    class       volVectorField;
    location    "0.6";
    object      U;
}
// * * * * * * * * * * * * * * * * * * * * * * * * * * * * * * * * * * * * * //

dimensions      [0 1 -1 0 0 0 0];

internalField   nonuniform List<vector> 
1681
(
(5.69379e-05 -5.64871e-05 0)
(0.000149168 -5.52619e-05 0)
(0.00015714 -9.83034e-06 0)
(2.57655e-05 4.52647e-05 0)
(-0.000254752 9.73025e-05 0)
(-0.000670602 0.000141718 0)
(-0.00120006 0.000177118 0)
(-0.00181883 0.000203451 0)
(-0.00250219 0.000221183 0)
(-0.0032261 0.000230958 0)
(-0.0039678 0.000233465 0)
(-0.00470615 0.000229396 0)
(-0.00542175 0.000219426 0)
(-0.00609705 0.000204206 0)
(-0.00671637 0.000184365 0)
(-0.0072659 0.000160518 0)
(-0.00773377 0.000133267 0)
(-0.00811 0.00010321 0)
(-0.00838657 7.09503e-05 0)
(-0.00855747 3.71038e-05 0)
(-0.00861872 2.30625e-06 0)
(-0.00856845 -3.27805e-05 0)
(-0.00840701 -6.7465e-05 0)
(-0.00813703 -0.000101025 0)
(-0.00776346 -0.000132708 0)
(-0.0072937 -0.000161736 0)
(-0.0067376 -0.000187312 0)
(-0.00610748 -0.00020863 0)
(-0.00541808 -0.00022489 0)
(-0.00468651 -0.000235308 0)
(-0.00393205 -0.000239136 0)
(-0.003176 -0.000235675 0)
(-0.00244135 -0.000224297 0)
(-0.00175235 -0.000204468 0)
(-0.001134 -0.000175799 0)
(-0.000611201 -0.000138167 0)
(-0.000207416 -9.20404e-05 0)
(5.75624e-05 -3.92758e-05 0)
(0.00017294 1.51125e-05 0)
(0.000152734 5.81828e-05 0)
(5.6389e-05 5.61772e-05 0)
(5.69219e-05 -0.000149462 0)
(7.86413e-05 -7.53839e-05 0)
(-0.000140023 0.00015496 0)
(-0.000676588 0.000428791 0)
(-0.00154846 0.000695742 0)
(-0.00273396 0.000931788 0)
(-0.00419041 0.00112589 0)
(-0.00586457 0.00127399 0)
(-0.0076987 0.00137563 0)
(-0.00963415 0.00143228 0)
(-0.0116137 0.0014464 0)
(-0.0135829 0.00142108 0)
(-0.0154911 0.00135967 0)
(-0.0172919 0.00126572 0)
(-0.0189433 0.00114288 0)
(-0.0204085 0.000994842 0)
(-0.0216555 0.000825356 0)
(-0.0226575 0.000638225 0)
(-0.0233929 0.000437332 0)
(-0.0238458 0.000226659 0)
(-0.0240057 1.03113e-05 0)
(-0.0238679 -0.000207463 0)
(-0.0234338 -0.000422264 0)
(-0.0227109 -0.000629549 0)
(-0.0217128 -0.000824646 0)
(-0.0204597 -0.00100279 0)
(-0.0189782 -0.00115919 0)
(-0.0173014 -0.00128908 0)
(-0.0154682 -0.00138784 0)
(-0.0135238 -0.00145109 0)
(-0.0115185 -0.00147484 0)
(-0.00950712 -0.00145565 0)
(-0.00754808 -0.00139081 0)
(-0.00570186 -0.00127867 0)
(-0.00402909 -0.00111904 0)
(-0.00258776 -0.000914048 0)
(-0.00142925 -0.000669676 0)
(-0.000592164 -0.000398953 0)
(-9.21129e-05 -0.000127627 0)
(9.63089e-05 9.31362e-05 0)
(5.95315e-05 0.000153041 0)
(1.38964e-05 -0.000162054 0)
(-0.000145127 0.000140337 0)
(-0.00071487 0.000724637 0)
(-0.00174466 0.0013978 0)
(-0.00324038 0.00205917 0)
(-0.00517262 0.00265221 0)
(-0.00748459 0.00314646 0)
(-0.0101034 0.00352753 0)
(-0.012948 0.00379062 0)
(-0.0159345 0.00393673 0)
(-0.0189796 0.00397038 0)
(-0.0220029 0.00389831 0)
(-0.0249289 0.00372862 0)
(-0.0276878 0.0034703 0)
(-0.0302164 0.00313288 0)
(-0.0324585 0.00272629 0)
(-0.0343656 0.00226074 0)
(-0.0358969 0.00174673 0)
(-0.0370197 0.00119503 0)
(-0.0377098 0.000616699 0)
(-0.0379514 2.31626e-05 0)
(-0.0377378 -0.0005738 0)
(-0.0370712 -0.00116204 0)
(-0.0359634 -0.00172908 0)
(-0.0344356 -0.00226217 0)
(-0.0325186 -0.00274838 0)
(-0.030253 -0.00317484 0)
(-0.0276888 -0.00352889 0)
(-0.024885 -0.00379837 0)
(-0.0219091 -0.00397199 0)
(-0.0188362 -0.00403975 0)
(-0.0157476 -0.00399341 0)
(-0.0127287 -0.00382715 0)
(-0.00986748 -0.00353848 0)
(-0.00725045 -0.00312948 0)
(-0.00495906 -0.00260888 0)
(-0.0030639 -0.00199553 0)
(-0.00161661 -0.00132437 0)
(-0.000638984 -0.000655603 0)
(-0.00011448 -9.1645e-05 0)
(1.95439e-05 0.000177955 0)
(-3.87688e-05 -3.96116e-05 0)
(-0.000416323 0.000671889 0)
(-0.00139409 0.00175444 0)
(-0.00296412 0.0029544 0)
(-0.00510527 0.00412532 0)
(-0.00777491 0.00517719 0)
(-0.0109019 0.00605709 0)
(-0.0143968 0.00673719 0)
(-0.0181603 0.00720599 0)
(-0.0220889 0.00746265 0)
(-0.0260791 0.00751329 0)
(-0.0300301 0.00736871 0)
(-0.0338467 0.00704277 0)
(-0.0374404 0.00655139 0)
(-0.0407305 0.0059119 0)
(-0.0436455 0.00514259 0)
(-0.0461231 0.00426255 0)
(-0.0481113 0.00329147 0)
(-0.049568 0.00224969 0)
(-0.0504624 0.00115815 0)
(-0.0507743 3.84388e-05 0)
(-0.0504953 -0.00108718 0)
(-0.0496286 -0.00219584 0)
(-0.0481895 -0.00326408 0)
(-0.0462052 -0.00426805 0)
(-0.0437155 -0.00518372 0)
(-0.0407722 -0.00598721 0)
(-0.0374392 -0.00665524 0)
(-0.0337915 -0.00716565 0)
(-0.0299147 -0.00749811 0)
(-0.0259036 -0.00763492 0)
(-0.02186 -0.007562 0)
(-0.0178912 -0.00727016 0)
(-0.0141062 -0.00675673 0)
(-0.0106117 -0.00602782 0)
(-0.00750803 -0.00510162 0)
(-0.00488221 -0.00401351 0)
(-0.00279978 -0.00282397 0)
(-0.00129467 -0.00162934 0)
(-0.000374939 -0.000579514 0)
(-3.07319e-05 7.45261e-05 0)
(-9.01594e-05 0.000231684 0)
(-0.000693322 0.00154978 0)
(-0.00209863 0.00327283 0)
(-0.00422796 0.00510951 0)
(-0.00702322 0.00687831 0)
(-0.0104228 0.00846044 0)
(-0.0143386 0.00978188 0)
(-0.0186647 0.0108011 0)
(-0.0232858 0.011499 0)
(-0.0280817 0.0118722 0)
(-0.0329325 0.0119283 0)
(-0.0377209 0.0116823 0)
(-0.0423359 0.0111544 0)
(-0.0466737 0.0103685 0)
(-0.0506399 0.00935098 0)
(-0.0541504 0.00813023 0)
(-0.0571319 0.00673592 0)
(-0.059523 0.00519891 0)
(-0.0612743 0.00355117 0)
(-0.0623494 0.00182567 0)
(-0.0627246 5.63901e-05 0)
(-0.0623902 -0.00172166 0)
(-0.0613498 -0.00347254 0)
(-0.0596216 -0.00515953 0)
(-0.0572378 -0.00674536 0)
(-0.0542451 -0.0081926 0)
(-0.0507045 -0.00946421 0)
(-0.0466907 -0.0105242 0)
(-0.0422918 -0.0113387 0)
(-0.0376077 -0.0118767 0)
(-0.0327491 -0.0121116 0)
(-0.0278348 -0.0120228 0)
(-0.0229894 -0.0115975 0)
(-0.0183394 -0.0108333 0)
(-0.0140092 -0.00974104 0)
(-0.0101158 -0.00834961 0)
(-0.00676329 -0.00671163 0)
(-0.00403374 -0.00491233 0)
(-0.00197933 -0.00308025 0)
(-0.000642769 -0.00140323 0)
(-8.00985e-05 -0.000172375 0)
(-0.000137226 0.000646502 0)
(-0.000959943 0.00277608 0)
(-0.0027917 0.00528822 0)
(-0.00548156 0.0078717 0)
(-0.0089295 0.0103207 0)
(-0.0130503 0.0124942 0)
(-0.0177362 0.0143005 0)
(-0.0228637 0.015686 0)
(-0.0283011 0.0166246 0)
(-0.0339136 0.0171109 0)
(-0.0395666 0.017154 0)
(-0.0451291 0.0167735 0)
(-0.0504768 0.0159968 0)
(-0.0554938 0.0148566 0)
(-0.0600743 0.0133896 0)
(-0.0641241 0.0116354 0)
(-0.067561 0.00963585 0)
(-0.0703161 0.00743447 0)
(-0.0723342 0.00507654 0)
(-0.0735741 0.0026088 0)
(-0.0740096 7.94258e-05 0)
(-0.0736292 -0.00246199 0)
(-0.0724372 -0.00496459 0)
(-0.0704536 -0.00737648 0)
(-0.0677144 -0.00964512 0)
(-0.0642718 -0.0117178 0)
(-0.0601937 -0.0135426 0)
(-0.0555637 -0.0150691 0)
(-0.05048 -0.01625 0)
(-0.0450545 -0.0170423 0)
(-0.0394107 -0.0174094 0)
(-0.0336817 -0.0173234 0)
(-0.028007 -0.0167673 0)
(-0.0225289 -0.0157386 0)
(-0.0173882 -0.0142528 0)
(-0.012719 -0.0123491 0)
(-0.00864359 -0.010096 0)
(-0.00526429 -0.00760097 0)
(-0.00265607 -0.00501905 0)
(-0.000901472 -0.00256651 0)
(-0.000125327 -0.000558197 0)
(-0.000179734 0.0011955 0)
(-0.00121152 0.00434081 0)
(-0.00345911 0.00779433 0)
(-0.00670123 0.0112366 0)
(-0.0107943 0.0144467 0)
(-0.0156267 0.0172678 0)
(-0.0210683 0.0195953 0)
(-0.0269763 0.021366 0)
(-0.0332025 0.022549 0)
(-0.0395973 0.0231377 0)
(-0.0460127 0.0231438 0)
(-0.0523057 0.0225924 0)
(-0.0583404 0.0215189 0)
(-0.0639907 0.0199658 0)
(-0.0691418 0.0179811 0)
(-0.073691 0.0156168 0)
(-0.0775491 0.0129279 0)
(-0.0806413 0.00997211 0)
(-0.0829074 0.00680923 0)
(-0.0843027 0.00350112 0)
(-0.0847982 0.000111567 0)
(-0.0843814 -0.00329385 0)
(-0.0830566 -0.0066479 0)
(-0.0808449 -0.00988204 0)
(-0.077785 -0.0129269 0)
(-0.073933 -0.0157131 0)
(-0.0693623 -0.0181721 0)
(-0.0641631 -0.0202378 0)
(-0.0584419 -0.0218478 0)
(-0.0523203 -0.022946 0)
(-0.0459329 -0.0234845 0)
(-0.0394251 -0.0234267 0)
(-0.0329502 -0.0227505 0)
(-0.0266657 -0.0214522 0)
(-0.0207285 -0.0195511 0)
(-0.0152912 -0.0170948 0)
(-0.0104964 -0.0141658 0)
(-0.00646945 -0.0108896 0)
(-0.00331141 -0.0074425 0)
(-0.00114649 -0.00406125 0)
(-0.000166144 -0.00107417 0)
(-0.000218466 0.00186965 0)
(-0.00144877 0.00623055 0)
(-0.00409892 0.0107789 0)
(-0.00788149 0.0151937 0)
(-0.0126097 0.0192461 0)
(-0.0181439 0.0227695 0)
(-0.0243296 0.0256507 0)
(-0.0310034 0.0278208 0)
(-0.0379997 0.0292465 0)
(-0.0451538 0.029922 0)
(-0.0523047 0.0298632 0)
(-0.0592981 0.0291019 0)
(-0.0659881 0.0276826 0)
(-0.0722399 0.0256587 0)
(-0.0779308 0.0230905 0)
(-0.0829516 0.0200434 0)
(-0.0872075 0.0165867 0)
(-0.0906186 0.0127932 0)
(-0.0931209 0.00873825 0)
(-0.0946668 0.00449984 0)
(-0.0952251 0.000158364 0)
(-0.0947819 -0.00420353 0)
(-0.093341 -0.00850116 0)
(-0.0909242 -0.0126482 0)
(-0.0875718 -0.0165573 0)
(-0.0833422 -0.020141 0)
(-0.0783129 -0.0233131 0)
(-0.0725793 -0.0259901 0)
(-0.0662545 -0.0280935 0)
(-0.0594679 -0.0295522 0)
(-0.052364 -0.0303057 0)
(-0.0450995 -0.0303071 0)
(-0.037841 -0.0295278 0)
(-0.0307609 -0.0279611 0)
(-0.0240335 -0.025628 0)
(-0.0178309 -0.0225824 0)
(-0.0123185 -0.0189176 0)
(-0.00764671 -0.0147734 0)
(-0.00394489 -0.0103425 0)
(-0.00137904 -0.00587649 0)
(-0.000203392 -0.00171198 0)
(-0.000254436 0.00266155 0)
(-0.00167455 0.00843259 0)
(-0.00471505 0.0142289 0)
(-0.00902656 0.0197318 0)
(-0.0143801 0.0247089 0)
(-0.0206072 0.0289891 0)
(-0.0275281 0.0324553 0)
(-0.0349571 0.0350366 0)
(-0.0427104 0.0367001 0)
(-0.050608 0.0374435 0)
(-0.0584759 0.0372889 0)
(-0.0661489 0.0362766 0)
(-0.073472 0.0344615 0)
(-0.0803026 0.0319093 0)
(-0.0865117 0.0286935 0)
(-0.0919846 0.024894 0)
(-0.0966219 0.0205954 0)
(-0.10034 0.0158861 0)
(-0.103072 0.0108578 0)
(-0.104767 0.00560553 0)
(-0.105393 0.00022684 0)
(-0.104934 -0.00517782 0)
(-0.103393 -0.0105056 0)
(-0.100792 -0.0156514 0)
(-0.097171 -0.0205092 0)
(-0.0925905 -0.0249723 0)
(-0.0871302 -0.0289356 0)
(-0.0808891 -0.0322969 0)
(-0.0739857 -0.03496 0)
(-0.066556 -0.0368374 0)
(-0.0587533 -0.0378539 0)
(-0.0507451 -0.0379507 0)
(-0.0427109 -0.0370901 0)
(-0.0348388 -0.0352604 0)
(-0.0273214 -0.0324817 0)
(-0.0203519 -0.0288113 0)
(-0.0141202 -0.0243499 0)
(-0.00880419 -0.0192484 0)
(-0.00456258 -0.0137116 0)
(-0.00160273 -0.00800289 0)
(-0.000238207 -0.00246529 0)
(-0.000288599 0.00356579 0)
(-0.00189229 0.0109368 0)
(-0.00531387 0.0181336 0)
(-0.0101452 0.0248409 0)
(-0.0161163 0.0308265 0)
(-0.0230294 0.0359189 0)
(-0.0306786 0.040001 0)
(-0.0388552 0.0430035 0)
(-0.0473563 0.0448979 0)
(-0.0559859 0.0456881 0)
(-0.0645571 0.0454046 0)
(-0.0728942 0.0440985 0)
(-0.0808337 0.041837 0)
(-0.0882262 0.038699 0)
(-0.0949372 0.034773 0)
(-0.100848 0.030154 0)
(-0.105855 0.0249426 0)
(-0.109872 0.0192437 0)
(-0.11283 0.013166 0)
(-0.114677 0.00682138 0)
(-0.115377 0.000325407 0)
(-0.114914 -0.00620336 0)
(-0.113289 -0.0126434 0)
(-0.110522 -0.0188705 0)
(-0.106655 -0.0247589 0)
(-0.101748 -0.0301822 0)
(-0.0958805 -0.0350149 0)
(-0.089155 -0.0391352 0)
(-0.0816933 -0.0424272 0)
(-0.0736374 -0.0447853 0)
(-0.0651481 -0.0461174 0)
(-0.0564036 -0.0463503 0)
(-0.0475963 -0.0454348 0)
(-0.0389306 -0.0433513 0)
(-0.0306184 -0.0401155 0)
(-0.0228759 -0.0357851 0)
(-0.0159193 -0.0304652 0)
(-0.00995531 -0.024314 0)
(-0.00517341 -0.0175462 0)
(-0.00182201 -0.0104349 0)
(-0.000271719 -0.00333022 0)
(-0.000321775 0.00457898 0)
(-0.00210542 0.0137365 0)
(-0.00590243 0.0224854 0)
(-0.0112479 0.0305141 0)
(-0.0178315 0.0375929 0)
(-0.0254262 0.0435531 0)
(-0.0337989 0.0482815 0)
(-0.0427175 0.0517145 0)
(-0.0519589 0.0538311 0)
(-0.0613112 0.0546448 0)
(-0.0705743 0.0541976 0)
(-0.0795623 0.0525536 0)
(-0.0881038 0.049794 0)
(-0.0960436 0.0460133 0)
(-0.103243 0.0413154 0)
(-0.109578 0.0358121 0)
(-0.114946 0.0296203 0)
(-0.119257 0.022862 0)
(-0.122439 0.0156628 0)
(-0.12444 0.00815231 0)
(-0.125222 0.000463754 0)
(-0.124767 -0.00726603 0)
(-0.123074 -0.0148966 0)
(-0.120164 -0.0222846 0)
(-0.116074 -0.0292838 0)
(-0.110863 -0.0357474 0)
(-0.104612 -0.0415287 0)
(-0.0974246 -0.0464846 0)
(-0.0894239 -0.0504782 0)
(-0.0807569 -0.0533832 0)
(-0.0715914 -0.0550884 0)
(-0.0621154 -0.0555032 0)
(-0.0525347 -0.0545638 0)
(-0.0430703 -0.0522389 0)
(-0.033955 -0.048537 0)
(-0.025429 -0.0435122 0)
(-0.0177368 -0.0372706 0)
(-0.0111158 -0.0299751 0)
(-0.00578741 -0.021848 0)
(-0.00204145 -0.0131717 0)
(-0.000304957 -0.00430544 0)
(-0.000354652 0.00569952 0)
(-0.00231705 0.0168282 0)
(-0.00648762 0.0272805 0)
(-0.0123454 0.0367478 0)
(-0.0195397 0.0450047 0)
(-0.0278139 0.0518882 0)
(-0.0369072 0.0572925 0)
(-0.0465629 0.0611637 0)
(-0.0565379 0.0634919 0)
(-0.0666036 0.0643039 0)
(-0.076547 0.0636561 0)
(-0.0861722 0.0616284 0)
(-0.0953009 0.0583186 0)
(-0.103773 0.0538381 0)
(-0.111445 0.0483082 0)
(-0.118194 0.0418577 0)
(-0.123912 0.0346211 0)
(-0.128509 0.0267374 0)
(-0.131915 0.0183495 0)
(-0.134073 0.00960433 0)
(-0.134946 0.000652693 0)
(-0.134513 -0.00835049 0)
(-0.132772 -0.0172462 0)
(-0.129739 -0.0258714 0)
(-0.12545 -0.0340599 0)
(-0.119963 -0.0416434 0)
(-0.113355 -0.0484534 0)
(-0.105729 -0.0543241 0)
(-0.0972107 -0.0590954 0)
(-0.0879493 -0.0626184 0)
(-0.0781188 -0.0647596 0)
(-0.0679165 -0.0654078 0)
(-0.0575614 -0.0644806 0)
(-0.0472918 -0.0619316 0)
(-0.0373619 -0.0577575 0)
(-0.0280382 -0.0520054 0)
(-0.0195949 -0.0447786 0)
(-0.0123021 -0.0362422 0)
(-0.00641469 -0.0266246 0)
(-0.00226545 -0.0162174 0)
(-0.000338838 -0.0053921 0)
(-0.000387805 0.00692741 0)
(-0.00253 0.020212 0)
(-0.00707583 0.0325189 0)
(-0.0134477 0.043542 0)
(-0.0212542 0.0530614 0)
(-0.030208 0.0609226 0)
(-0.0400199 0.0670308 0)
(-0.0504082 0.0713455 0)
(-0.061109 0.073872 0)
(-0.0718769 0.0746542 0)
(-0.0824865 0.0737666 0)
(-0.0927325 0.0713079 0)
(-0.10243 0.0673948 0)
(-0.111415 0.0621577 0)
(-0.119543 0.0557367 0)
(-0.126689 0.0482789 0)
(-0.132745 0.0399365 0)
(-0.137622 0.0308658 0)
(-0.141248 0.0212269 0)
(-0.143567 0.0111837 0)
(-0.144539 0.00090393 0)
(-0.144143 -0.00943993 0)
(-0.142374 -0.0196707 0)
(-0.139243 -0.0296062 0)
(-0.134785 -0.0390602 0)
(-0.129051 -0.0478426 0)
(-0.122117 -0.0557622 0)
(-0.114082 -0.0626291 0)
(-0.105072 -0.0682585 0)
(-0.0952375 -0.0724756 0)
(-0.0847571 -0.0751218 0)
(-0.0738365 -0.0760614 0)
(-0.0627075 -0.0751893 0)
(-0.051626 -0.0724391 0)
(-0.0408689 -0.0677914 0)
(-0.0307299 -0.0612817 0)
(-0.0215154 -0.0530071 0)
(-0.0135301 -0.0431319 0)
(-0.00706504 -0.0318894 0)
(-0.00249816 -0.0195812 0)
(-0.000374185 -0.00659358 0)
(-0.000421725 0.00826404 0)
(-0.00274672 0.0238907 0)
(-0.00767286 0.0382042 0)
(-0.0145642 0.0508998 0)
(-0.0229871 0.061765 0)
(-0.0326222 0.0706561 0)
(-0.0431512 0.0774931 0)
(-0.0542664 0.082253 0)
(-0.0656825 0.0849609 0)
(-0.077138 0.0856817 0)
(-0.0883948 0.0845119 0)
(-0.0992395 0.0815724 0)
(-0.109482 0.0770017 0)
(-0.118956 0.0709515 0)
(-0.127516 0.063582 0)
(-0.135037 0.0550595 0)
(-0.141414 0.0455545 0)
(-0.146558 0.0352405 0)
(-0.150398 0.0242944 0)
(-0.152879 0.0128961 0)
(-0.15396 0.00122974 0)
(-0.153617 -0.0105158 0)
(-0.151842 -0.0221459 0)
(-0.148644 -0.0334603 0)
(-0.144048 -0.0442526 0)
(-0.138105 -0.0543113 0)
(-0.130882 -0.0634218 0)
(-0.122476 -0.0713688 0)
(-0.113009 -0.0779405 0)
(-0.10263 -0.0829338 0)
(-0.0915211 -0.0861612 0)
(-0.0798958 -0.0874581 0)
(-0.0679976 -0.0866919 0)
(-0.0560998 -0.083771 0)
(-0.0445026 -0.0786546 0)
(-0.0335288 -0.0713617 0)
(-0.0235189 -0.061979 0)
(-0.0148152 -0.0506669 0)
(-0.0077478 -0.0376621 0)
(-0.00274345 -0.0232767 0)
(-0.000411747 -0.0079154 0)
(-0.000456843 0.009712 0)
(-0.00296945 0.0278701 0)
(-0.008284 0.0443431 0)
(-0.0157033 0.0588277 0)
(-0.0247491 0.0711195 0)
(-0.0350685 0.0810892 0)
(-0.0463123 0.0886754 0)
(-0.0581461 0.093877 0)
(-0.0702632 0.0967439 0)
(-0.0823854 0.0973667 0)
(-0.0942636 0.0958684 0)
(-0.105677 0.0923954 0)
(-0.116432 0.0871115 0)
(-0.126361 0.0801917 0)
(-0.13532 0.071818 0)
(-0.143188 0.062177 0)
(-0.149861 0.0514576 0)
(-0.155254 0.0398505 0)
(-0.159299 0.0275481 0)
(-0.161939 0.0147458 0)
(-0.163137 0.00164254 0)
(-0.162864 -0.0115576 0)
(-0.161109 -0.0246443 0)
(-0.157875 -0.0373998 0)
(-0.153184 -0.0495988 0)
(-0.147075 -0.0610085 0)
(-0.139612 -0.0713906 0)
(-0.130882 -0.0805032 0)
(-0.121001 -0.0881056 0)
(-0.110117 -0.0939634 0)
(-0.098412 -0.0978562 0)
(-0.0861042 -0.0995857 0)
(-0.073448 -0.0989862 0)
(-0.0607339 -0.095935 0)
(-0.0482857 -0.0903636 0)
(-0.0364569 -0.0822687 0)
(-0.0256245 -0.0717214 0)
(-0.0161719 -0.058875 0)
(-0.0084718 -0.0439677 0)
(-0.00300501 -0.0273223 0)
(-0.00045223 -0.00936502 0)
(-0.000493557 0.011275 0)
(-0.0032003 0.0321583 0)
(-0.00891423 0.0509455 0)
(-0.0168728 0.0673342 0)
(-0.0265499 0.0811304 0)
(-0.0375568 0.0922221 0)
(-0.0495114 0.100571 0)
(-0.0620517 0.106204 0)
(-0.074849 0.1092 0)
(-0.0876092 0.109682 0)
(-0.100073 0.107803 0)
(-0.112014 0.103741 0)
(-0.123236 0.0976859 0)
(-0.133575 0.0898401 0)
(-0.14289 0.0804091 0)
(-0.151064 0.0696002 0)
(-0.157999 0.0576208 0)
(-0.163615 0.0446782 0)
(-0.167847 0.0309798 0)
(-0.170642 0.0167345 0)
(-0.171961 0.00215426 0)
(-0.171775 -0.0125435 0)
(-0.170068 -0.0271342 0)
(-0.166839 -0.0413849 0)
(-0.162099 -0.0550522 0)
(-0.155881 -0.0678832 0)
(-0.148235 -0.0796155 0)
(-0.139241 -0.0899802 0)
(-0.129006 -0.0987055 0)
(-0.11767 -0.105523 0)
(-0.105414 -0.110174 0)
(-0.0924583 -0.112423 0)
(-0.0790654 -0.112063 0)
(-0.0655422 -0.108934 0)
(-0.0522364 -0.102933 0)
(-0.0395334 -0.0940267 0)
(-0.0278498 -0.0822649 0)
(-0.0176137 -0.0677891 0)
(-0.00924552 -0.0508364 0)
(-0.00328641 -0.0317404 0)
(-0.000496319 -0.0109518 0)
(-0.000532267 0.0129579 0)
(-0.00344138 0.0367658 0)
(-0.00956851 0.0580239 0)
(-0.0180805 0.0764304 0)
(-0.0283988 0.0918038 0)
(-0.0400957 0.104054 0)
(-0.0527541 0.113171 0)
(-0.0659828 0.119215 0)
(-0.079431 0.122301 0)
(-0.0927896 0.122591 0)
(-0.10579 0.120273 0)
(-0.118203 0.115559 0)
(-0.129834 0.108673 0)
(-0.140523 0.0998456 0)
(-0.150134 0.0893067 0)
(-0.15856 0.0772858 0)
(-0.165711 0.0640087 0)
(-0.171513 0.0496982 0)
(-0.175907 0.0345751 0)
(-0.178844 0.0188599 0)
(-0.180287 0.00277564 0)
(-0.180205 -0.0134496 0)
(-0.178579 -0.0295798 0)
(-0.175398 -0.0453685 0)
(-0.170667 -0.0605568 0)
(-0.164404 -0.0748725 0)
(-0.15665 -0.0880301 0)
(-0.147468 -0.099733 0)
(-0.136954 -0.109677 0)
(-0.125238 -0.117555 0)
(-0.112493 -0.123069 0)
(-0.0989391 -0.125935 0)
(-0.0848445 -0.125903 0)
(-0.0705301 -0.122765 0)
(-0.0563671 -0.116374 0)
(-0.0427742 -0.10666 0)
(-0.0302104 -0.0936424 0)
(-0.0191534 -0.0774461 0)
(-0.0100772 -0.0583034 0)
(-0.00359119 -0.0365578 0)
(-0.000544708 -0.012687 0)
(-0.000573415 0.0147665 0)
(-0.00369498 0.0417059 0)
(-0.0102522 0.0655938 0)
(-0.0193342 0.0861291 0)
(-0.0303047 0.103146 0)
(-0.0426926 0.116581 0)
(-0.0560432 0.126459 0)
(-0.0699343 0.132881 0)
(-0.0839932 0.136007 0)
(-0.0978965 0.136041 0)
(-0.111369 0.133217 0)
(-0.124181 0.127785 0)
(-0.136143 0.120005 0)
(-0.147102 0.11014 0)
(-0.156934 0.0984466 0)
(-0.165541 0.0851763 0)
(-0.172845 0.070573 0)
(-0.178783 0.054874 0)
(-0.183303 0.0383113 0)
(-0.186364 0.0211147 0)
(-0.187928 0.00351523 0)
(-0.187966 -0.0142514 0)
(-0.186454 -0.0319408 0)
(-0.183373 -0.0492962 0)
(-0.178717 -0.0660457 0)
(-0.17249 -0.0819 0)
(-0.164715 -0.0965517 0)
(-0.155441 -0.109676 0)
(-0.144744 -0.120936 0)
(-0.132741 -0.129983 0)
(-0.119591 -0.136474 0)
(-0.10551 -0.140073 0)
(-0.0907662 -0.140473 0)
(-0.0756931 -0.137413 0)
(-0.060684 -0.130691 0)
(-0.0461916 -0.120188 0)
(-0.0327205 -0.105887 0)
(-0.0208034 -0.0878862 0)
(-0.0109751 -0.0664082 0)
(-0.00392301 -0.041805 0)
(-0.000598132 -0.0145836 0)
(-0.00061753 0.016708 0)
(-0.00396385 0.0469944 0)
(-0.0109715 0.0736733 0)
(-0.020643 0.0964451 0)
(-0.0322774 0.115163 0)
(-0.045355 0.129796 0)
(-0.0593795 0.140413 0)
(-0.0738967 0.147165 0)
(-0.0885116 0.150264 0)
(-0.102889 0.149967 0)
(-0.116749 0.146557 0)
(-0.129865 0.140332 0)
(-0.142057 0.131593 0)
(-0.153184 0.120636 0)
(-0.163138 0.107745 0)
(-0.171835 0.0931965 0)
(-0.179212 0.0772503 0)
(-0.185221 0.0601564 0)
(-0.18982 0.0421559 0)
(-0.192974 0.0234848 0)
(-0.194652 0.0043783 0)
(-0.194824 -0.0149238 0)
(-0.193461 -0.0341727 0)
(-0.190538 -0.0531053 0)
(-0.186033 -0.07144 0)
(-0.179935 -0.0888735 0)
(-0.172249 -0.105079 0)
(-0.162999 -0.119704 0)
(-0.15224 -0.132377 0)
(-0.140068 -0.142708 0)
(-0.126624 -0.1503 0)
(-0.112111 -0.154762 0)
(-0.096795 -0.155721 0)
(-0.0810154 -0.152849 0)
(-0.065186 -0.145878 0)
(-0.0497938 -0.134628 0)
(-0.0353927 -0.119032 0)
(-0.0225759 -0.0991523 0)
(-0.0119479 -0.0751948 0)
(-0.00428577 -0.0475169 0)
(-0.000657405 -0.0166566 0)
(-0.000665288 0.0187912 0)
(-0.00425137 0.0526505 0)
(-0.011734 0.0822844 0)
(-0.0220181 0.107395 0)
(-0.0343284 0.127859 0)
(-0.0480905 0.143687 0)
(-0.0627624 0.155001 0)
(-0.0778557 0.162013 0)
(-0.0929539 0.164999 0)
(-0.107711 0.164278 0)
(-0.121849 0.160192 0)
(-0.135149 0.153092 0)
(-0.147444 0.143324 0)
(-0.158611 0.13122 0)
(-0.168562 0.117097 0)
(-0.177235 0.10125 0)
(-0.184585 0.0839584 0)
(-0.190579 0.0654807 0)
(-0.195193 0.0460642 0)
(-0.198401 0.0259473 0)
(-0.200178 0.00536549 0)
(-0.200494 -0.0154422 0)
(-0.199318 -0.0362271 0)
(-0.196614 -0.0567245 0)
(-0.192348 -0.0766479 0)
(-0.18649 -0.0956837 0)
(-0.179019 -0.113488 0)
(-0.169935 -0.129685 0)
(-0.159263 -0.143866 0)
(-0.147071 -0.155599 0)
(-0.133476 -0.164431 0)
(-0.118659 -0.169903 0)
(-0.102876 -0.17157 0)
(-0.0864674 -0.169023 0)
(-0.0698635 -0.161915 0)
(-0.0535852 -0.149988 0)
(-0.0382381 -0.133108 0)
(-0.0244833 -0.111289 0)
(-0.0130048 -0.084711 0)
(-0.00468385 -0.0537326 0)
(-0.000723465 -0.0189233 0)
(-0.000717583 0.0210268 0)
(-0.00456201 0.0586976 0)
(-0.0125497 0.0914529 0)
(-0.0234733 0.118996 0)
(-0.036472 0.141236 0)
(-0.0509083 0.158234 0)
(-0.0661896 0.170179 0)
(-0.0817917 0.177356 0)
(-0.0972777 0.180119 0)
(-0.112296 0.178861 0)
(-0.126572 0.173994 0)
(-0.139902 0.165926 0)
(-0.152141 0.155055 0)
(-0.163189 0.141753 0)
(-0.172984 0.126368 0)
(-0.18149 0.109218 0)
(-0.188687 0.0905941 0)
(-0.194563 0.0707642 0)
(-0.199111 0.0499771 0)
(-0.202319 0.0284692 0)
(-0.204169 0.00647136 0)
(-0.204636 -0.0157834 0)
(-0.203684 -0.0380523 0)
(-0.201269 -0.0600745 0)
(-0.19734 -0.0815641 0)
(-0.191846 -0.102202 0)
(-0.184741 -0.121633 0)
(-0.17599 -0.139459 0)
(-0.165587 -0.155239 0)
(-0.153561 -0.168495 0)
(-0.139994 -0.178713 0)
(-0.125039 -0.185363 0)
(-0.108931 -0.187914 0)
(-0.092003 -0.185863 0)
(-0.0746969 -0.178762 0)
(-0.0575649 -0.166261 0)
(-0.0412667 -0.148137 0)
(-0.0265386 -0.124339 0)
(-0.0141561 -0.0950087 0)
(-0.00512239 -0.0604958 0)
(-0.000797443 -0.0214032 0)
(-0.000775637 0.0234281 0)
(-0.00490177 0.0651649 0)
(-0.0134316 0.10121 0)
(-0.025027 0.131271 0)
(-0.0387265 0.155295 0)
(-0.0538196 0.173409 0)
(-0.0696575 0.185885 0)
(-0.0856789 0.193101 0)
(-0.101429 0.195502 0)
(-0.116554 0.193571 0)
(-0.130793 0.187798 0)
(-0.143964 0.17866 0)
(-0.15595 0.166609 0)
(-0.166684 0.152062 0)
(-0.176137 0.135396 0)
(-0.184304 0.116952 0)
(-0.191195 0.0970304 0)
(-0.196825 0.075904 0)
(-0.201207 0.0538192 0)
(-0.204346 0.0310053 0)
(-0.206235 0.00768276 0)
(-0.206853 -0.0159274 0)
(-0.206161 -0.0395944 0)
(-0.204106 -0.0630682 0)
(-0.200623 -0.0860699 0)
(-0.195636 -0.108282 0)
(-0.189068 -0.129343 0)
(-0.180849 -0.148838 0)
(-0.170929 -0.166295 0)
(-0.159293 -0.181192 0)
(-0.145979 -0.192952 0)
(-0.131097 -0.200967 0)
(-0.114851 -0.204607 0)
(-0.0975557 -0.203259 0)
(-0.0796542 -0.196356 0)
(-0.0617262 -0.183425 0)
(-0.0444873 -0.164137 0)
(-0.0287563 -0.138349 0)
(-0.0154144 -0.106144 0)
(-0.0056076 -0.067856 0)
(-0.00088075 -0.0241191 0)
(-0.000841146 0.0260122 0)
(-0.00527882 0.0720887 0)
(-0.0143975 0.111595 0)
(-0.0267035 0.144243 0)
(-0.0411156 0.17003 0)
(-0.0568383 0.18917 0)
(-0.0731603 0.202039 0)
(-0.0894826 0.209126 0)
(-0.105336 0.210993 0)
(-0.120375 0.208224 0)
(-0.134358 0.201402 0)
(-0.147137 0.191081 0)
(-0.158631 0.177772 0)
(-0.168816 0.161938 0)
(-0.177703 0.143986 0)
(-0.185326 0.124274 0)
(-0.191731 0.103114 0)
(-0.196962 0.0807752 0)
(-0.201058 0.0574973 0)
(-0.204043 0.0334966 0)
(-0.205923 0.00897736 0)
(-0.206683 -0.0158582 0)
(-0.206284 -0.0407987 0)
(-0.204665 -0.065612 0)
(-0.201744 -0.0900339 0)
(-0.197421 -0.113757 0)
(-0.191585 -0.13642 0)
(-0.184125 -0.157597 0)
(-0.174942 -0.176794 0)
(-0.163967 -0.193443 0)
(-0.151181 -0.206908 0)
(-0.136638 -0.216491 0)
(-0.120494 -0.221457 0)
(-0.103034 -0.221061 0)
(-0.0846876 -0.214595 0)
(-0.0660555 -0.201436 0)
(-0.0479076 -0.181111 0)
(-0.031153 -0.153358 0)
(-0.0167945 -0.118177 0)
(-0.00614735 -0.075869 0)
(-0.000975209 -0.0270972 0)
(-0.000916485 0.0288011 0)
(-0.00570441 0.0795155 0)
(-0.0154712 0.122655 0)
(-0.0285349 0.157938 0)
(-0.0436699 0.185432 0)
(-0.0599808 0.20546 0)
(-0.076688 0.21853 0)
(-0.0931558 0.225276 0)
(-0.108909 0.226393 0)
(-0.123617 0.222591 0)
(-0.137074 0.214557 0)
(-0.149176 0.20293 0)
(-0.159892 0.188286 0)
(-0.169249 0.171131 0)
(-0.177307 0.151904 0)
(-0.184147 0.130977 0)
(-0.189855 0.108664 0)
(-0.194509 0.0852297 0)
(-0.198177 0.0608989 0)
(-0.200906 0.0358694 0)
(-0.202717 0.0103222 0)
(-0.203602 -0.0155664 0)
(-0.203525 -0.0416117 0)
(-0.202418 -0.0676076 0)
(-0.200181 -0.0933137 0)
(-0.196692 -0.118441 0)
(-0.191803 -0.142638 0)
(-0.18536 -0.165479 0)
(-0.177206 -0.186452 0)
(-0.16721 -0.204952 0)
(-0.155282 -0.220281 0)
(-0.141406 -0.231653 0)
(-0.125672 -0.238212 0)
(-0.108312 -0.239067 0)
(-0.0897287 -0.233337 0)
(-0.0705294 -0.220215 0)
(-0.0515341 -0.199045 0)
(-0.0337485 -0.169404 0)
(-0.0183155 -0.131173 0)
(-0.00675191 -0.0845988 0)
(-0.00108325 -0.0303686 0)
(-0.00100502 0.0318235 0)
(-0.00619408 0.0875053 0)
(-0.016685 0.134449 0)
(-0.0305635 0.172386 0)
(-0.0464276 0.201479 0)
(-0.0632651 0.222195 0)
(-0.0802223 0.235214 0)
(-0.0966316 0.241345 0)
(-0.112022 0.241451 0)
(-0.126095 0.236387 0)
(-0.138696 0.226958 0)
(-0.149779 0.213895 0)
(-0.159377 0.197842 0)
(-0.167581 0.17935 0)
(-0.174508 0.158882 0)
(-0.180292 0.136819 0)
(-0.185062 0.113474 0)
(-0.188938 0.0890963 0)
(-0.192017 0.0638928 0)
(-0.194371 0.0380346 0)
(-0.196037 0.0116725 0)
(-0.197021 -0.0150501 0)
(-0.197287 -0.0419831 0)
(-0.196764 -0.0689552 0)
(-0.195338 -0.0957589 0)
(-0.192861 -0.122134 0)
(-0.189153 -0.14775 0)
(-0.18401 -0.172192 0)
(-0.177217 -0.194941 0)
(-0.168568 -0.215365 0)
(-0.15789 -0.23271 0)
(-0.14508 -0.2461 0)
(-0.130139 -0.254551 0)
(-0.113222 -0.257006 0)
(-0.0946817 -0.252381 0)
(-0.0751111 -0.239641 0)
(-0.0553709 -0.217898 0)
(-0.0365669 -0.186513 0)
(-0.0200023 -0.145202 0)
(-0.007435 -0.0941198 0)
(-0.00120819 -0.0339705 0)
(-0.00111158 0.0351179 0)
(-0.00676947 0.0961365 0)
(-0.0180825 0.147053 0)
(-0.0328443 0.187621 0)
(-0.0494352 0.218137 0)
(-0.0667071 0.239261 0)
(-0.0837294 0.251896 0)
(-0.0998121 0.257072 0)
(-0.114506 0.255853 0)
(-0.127567 0.249261 0)
(-0.13891 0.238236 0)
(-0.148568 0.223607 0)
(-0.156654 0.206084 0)
(-0.163331 0.186258 0)
(-0.168785 0.164612 0)
(-0.173206 0.141528 0)
(-0.176775 0.117308 0)
(-0.179649 0.0921828 0)
(-0.181961 0.0663301 0)
(-0.183806 0.0398885 0)
(-0.185242 0.0129717 0)
(-0.186286 -0.0143167 0)
(-0.186909 -0.0418689 0)
(-0.187035 -0.0695569 0)
(-0.186542 -0.0972153 0)
(-0.18526 -0.124624 0)
(-0.182977 -0.151487 0)
(-0.17944 -0.177412 0)
(-0.174372 -0.201891 0)
(-0.167487 -0.224275 0)
(-0.158517 -0.243766 0)
(-0.147249 -0.259402 0)
(-0.133574 -0.270069 0)
(-0.117538 -0.274525 0)
(-0.0994115 -0.271451 0)
(-0.0797442 -0.259537 0)
(-0.0594183 -0.237597 0)
(-0.0396381 -0.204703 0)
(-0.0218876 -0.16034 0)
(-0.0082155 -0.10452 0)
(-0.0013547 -0.0379489 0)
(-0.00124318 0.0387363 0)
(-0.00746094 0.105512 0)
(-0.0197228 0.160559 0)
(-0.0354478 0.203676 0)
(-0.0527464 0.235346 0)
(-0.0703142 0.256496 0)
(-0.0871468 0.268317 0)
(-0.10255 0.272118 0)
(-0.116125 0.269202 0)
(-0.127707 0.260785 0)
(-0.13731 0.247953 0)
(-0.145067 0.231634 0)
(-0.151189 0.2126 0)
(-0.155922 0.191477 0)
(-0.159526 0.168753 0)
(-0.162254 0.144806 0)
(-0.164337 0.119914 0)
(-0.165974 0.0942804 0)
(-0.167328 0.0680478 0)
(-0.168521 0.0413148 0)
(-0.16963 0.0141518 0)
(-0.170685 -0.0133843 0)
(-0.171665 -0.0412344 0)
(-0.172496 -0.0693213 0)
(-0.17305 -0.0975317 0)
(-0.173142 -0.125696 0)
(-0.172529 -0.153568 0)
(-0.170916 -0.180793 0)
(-0.167964 -0.20689 0)
(-0.163303 -0.231216 0)
(-0.156559 -0.252943 0)
(-0.147395 -0.271039 0)
(-0.135559 -0.284259 0)
(-0.120956 -0.291167 0)
(-0.103728 -0.290177 0)
(-0.084342 -0.279647 0)
(-0.0636685 -0.258013 0)
(-0.0429986 -0.22397 0)
(-0.024016 -0.176667 0)
(-0.00911986 -0.115907 0)
(-0.00152956 -0.0423617 0)
(-0.00141025 0.0427498 0)
(-0.00831152 0.115768 0)
(-0.0216852 0.175084 0)
(-0.0384623 0.220577 0)
(-0.0564171 0.253008 0)
(-0.0740716 0.273668 0)
(-0.0903612 0.284129 0)
(-0.10462 0.286044 0)
(-0.116538 0.281002 0)
(-0.126071 0.270439 0)
(-0.133364 0.255589 0)
(-0.138674 0.237479 0)
(-0.142324 0.216932 0)
(-0.144658 0.194591 0)
(-0.146013 0.17094 0)
(-0.146703 0.146335 0)
(-0.147009 0.121025 0)
(-0.147167 0.0951714 0)
(-0.147371 0.0688755 0)
(-0.147765 0.0421895 0)
(-0.148445 0.0151351 0)
(-0.149453 -0.0122821 0)
(-0.150779 -0.0400572 0)
(-0.152355 -0.0681702 0)
(-0.154054 -0.0965678 0)
(-0.15568 -0.125143 0)
(-0.156972 -0.153709 0)
(-0.157599 -0.181973 0)
(-0.157165 -0.209499 0)
(-0.155219 -0.235674 0)
(-0.151278 -0.259667 0)
(-0.144861 -0.280395 0)
(-0.135548 -0.296502 0)
(-0.123061 -0.306352 0)
(-0.10736 -0.308066 0)
(-0.0887698 -0.29961 0)
(-0.0680979 -0.278949 0)
(-0.0466921 -0.244275 0)
(-0.0264473 -0.194272 0)
(-0.010186 -0.128411 0)
(-0.00174285 -0.0472837 0)
(-0.00162873 0.0472572 0)
(-0.00938316 0.127086 0)
(-0.0240771 0.190767 0)
(-0.041995 0.238334 0)
(-0.060495 0.27096 0)
(-0.0779177 0.290445 0)
(-0.0931719 0.298859 0)