/*--------------------------------*- C++ -*----------------------------------*\
| =========                 |                                                 |
| \\      /  F ield         | OpenFOAM: The Open Source CFD Toolbox           |
|  \\    /   O peration     | Version:  2306                                  |
|   \\  /    A nd           | Website:  www.openfoam.com                      |
|    \\/     M anipulation  |                                                 |
\*---------------------------------------------------------------------------*/
FoamFile
{
    version     2.0;
    format      ascii;
    arch        "LSB;label=32;scalar=64";
    class       volScalarField;
    location    "0.7";
    object      p;
}
// * * * * * * * * * * * * * * * * * * * * * * * * * * * * * * * * * * * * * //

dimensions      [0 2 -2 0 0 0 0];

internalField   nonuniform List<scalar> 
1681
(
-8.45817e-08
-0.00111149
-0.00372271
-0.00727848
-0.0111387
-0.0148287
-0.0180019
-0.0204106
-0.0218871
-0.0223278
-0.0216804
-0.0199342
-0.0171122
-0.0132655
-0.00846864
-0.00281568
0.00358267
0.0106018
0.0181053
0.0259472
0.0339739
0.0420268
0.0499441
0.057564
0.0647275
0.0712816
0.0770837
0.0820049
0.0859355
0.0887891
0.0905087
0.0910719
0.0904978
0.0888538
0.0862646
0.0829224
0.0790996
0.0751628
0.0715983
0.0690401
0.0680066
0.00110017
-9.96282e-06
-0.002134
-0.0049025
-0.00789094
-0.0107491
-0.0132016
-0.0150398
-0.0161137
-0.0163246
-0.0156173
-0.0139731
-0.0114041
-0.0079482
-0.00366554
0.00136504
0.00704885
0.0132778
0.0199325
0.0268846
0.0339986
0.0411344
0.0481493
0.054901
0.0612503
0.0670642
0.0722194
0.0766065
0.0801336
0.082731
0.0843558
0.0849966
0.0846788
0.0834701
0.0814859
0.0788954
0.0759269
0.0728711
0.0700874
0.068003
0.0669749
0.00371134
0.00209803
-5.13552e-05
-0.00253734
-0.00512242
-0.00754687
-0.00959406
-0.0110953
-0.011925
-0.0119968
-0.0112603
-0.009696
-0.00731154
-0.00413782
-0.00022597
0.00435557
0.00952348
0.0151818
0.0212238
0.0275342
0.0339913
0.0404685
0.0468375
0.05297
0.0587408
0.0640308
0.0687301
0.0727417
0.0759852
0.0784004
0.0799517
0.0806319
0.080466
0.0795156
0.0778816
0.0757072
0.073179
0.0705282
0.0680247
0.065919
0.0644152
0.00733704
0.00488592
0.0023636
-0.000185287
-0.00269427
-0.00497
-0.00684276
-0.00818218
-0.0088891
-0.00889413
-0.00815624
-0.00666023
-0.00441392
-0.00144554
0.00219875
0.00645714
0.0112542
0.0165026
0.0221052
0.0279566
0.0339449
0.0399543
0.0458663
0.051563
0.0569289
0.0618543
0.0662378
0.06999
0.0730366
0.0753221
0.076813
0.0775011
0.0774066
0.0765809
0.0751081
0.0731049
0.0707204
0.0681403
0.0655713
0.0631025
0.0607915
0.0114102
0.00797694
0.00491315
0.00212576
-0.000477821
-0.00275735
-0.00458276
-0.00585927
-0.00651409
-0.00649583
-0.00577514
-0.0043435
-0.0022115
0.000592951
0.0040264
0.00803156
0.0125388
0.0174677
0.0227286
0.028224
0.0338505
0.0395002
0.0450631
0.0504288
0.0554893
0.0601414
0.0642898
0.0678495
0.0707496
0.072936
0.0743743
0.0750527
0.0749841
0.0742079
0.0727906
0.0708238
0.0684226
0.065736
0.062921
0.0599167
0.0566502
0.0155208
0.0110605
0.00736418
0.00422354
0.00140604
-0.000988838
-0.00286314
-0.00415348
-0.00481149
-0.00480349
-0.00411263
-0.0027385
-0.000696132
0.00198512
0.0052627
0.00908197
0.0133774
0.0180735
0.0230865
0.0283252
0.0336923
0.0390864
0.0444034
0.0495389
0.0543896
0.0588568
0.0628483
0.0662813
0.0690857
0.071206
0.0726047
0.0732643
0.0731888
0.0724052
0.0709628
0.0689302
0.0663941
0.0634745
0.0602924
0.0566552
0.0523821
0.0193702
0.0138857
0.00951059
0.00594212
0.00282738
0.00023584
-0.00175938
-0.00312147
-0.00382383
-0.0038495
-0.00319407
-0.00186586
0.000114619
0.00271519
0.00589269
0.00959359
0.0137548
0.0183043
0.0231624
0.0282424
0.0334515
0.038693
0.0438668
0.0488719
0.0536083
0.0579791
0.0618931
0.0652675
0.0680301
0.0701225
0.0715019
0.0721433
0.0720412
0.0712097
0.0696822
0.0675076
0.0647489
0.0615056
0.0578741
0.0535499
0.0482645
0.022733
0.0162471
0.011175
0.00713552
0.00367102
0.000829496
-0.00133461
-0.00280665
-0.00357912
-0.00365032
-0.00302776
-0.00172857
0.000220652
0.00278402
0.00591661
0.00956477
0.0136665
0.018152
0.0229441
0.0279589
0.033107
0.0382942
0.043423
0.0483942
0.0531088
0.0574699
0.0613854
0.0647701
0.0675483
0.0696562
0.0710443
0.0716793
0.071545
0.070643
0.0689924
0.0666248
0.0635848
0.0599578
0.055825
0.0507857
0.0445002
0.0254336
0.0179728
0.0122006
0.00766726
0.0038225
0.000699141
-0.00166232
-0.00326574
-0.00412024
-0.00423787
-0.00363728
-0.00234428
-0.000391832
0.00217986
0.00532332
0.0089838
0.0130994
0.0176011
0.0224132
0.0274536
0.0326345
0.0378629
0.0430425
0.0480743
0.0528585
0.0572967
0.0612939
0.0647609
0.0676165
0.0697902
0.0712243
0.0718758
0.0717176
0.0707392
0.0689462
0.0663558
0.0629978
0.058949
0.0542823
0.0485129
0.0412401
0.027328
0.0189147
0.012445
0.00740756
0.00316711
-0.000254166
-0.00282626
-0.00456869
-0.00550511
-0.00565997
-0.0050623
-0.00374636
-0.00175161
0.000877029
0.00408895
0.00782758
0.0120302
0.0166277
0.0215449
0.0267002
0.0320063
0.0373706
0.0426962
0.047883
0.0528292
0.0574334
0.0615959
0.0652219
0.0682232
0.070521
0.0720482
0.0727509
0.0725906
0.0715446
0.0696062
0.06678
0.0630839
0.0585902
0.0533687
0.0468579
0.0386028
0.0282903
0.0189392
0.0117761
0.00623138
0.00159013
-0.00213346
-0.00491744
-0.0067949
-0.00780247
-0.00797597
-0.00735428
-0.00597985
-0.00389869
-0.00116071
0.0021799
0.00606417
0.0104279
0.0152012
0.0203085
0.0256678
0.0311916
0.0367864
0.042354
0.0477919
0.052995
0.0578574
0.0622737
0.0661416
0.0693647
0.0718542
0.073532
0.0743327
0.0742053
0.0731148
0.0710425
0.0679815
0.0639401
0.0589889
0.0531979
0.0459334
0.0366889
0.0282032
0.01792
0.0100661
0.00401534
-0.00102479
-0.00504621
-0.00803349
-0.010032
-0.0110904
-0.0112553
-0.0105749
-0.00909982
-0.00688273
-0.00397873
-0.000445936
0.00365383
0.00825439
0.0132846
0.0186677
0.0243211
0.0301558
0.0360772
0.0419844
0.0477721
0.0533307
0.0585485
0.0633129
0.0675134
0.0710431
0.0738021
0.0756999
0.076658
0.076612
0.0755139
0.0733326
0.0700504
0.0656669
0.0602529
0.0538813
0.0458467
0.0355921
0.0269507
0.0157324
0.00718774
0.000634293
-0.00479768
-0.00910536
-0.012279
-0.0143758
-0.0154558
-0.0155762
-0.0147948
-0.0131703
-0.010762
-0.00763051
-0.00383822
0.0005499
0.00546535
0.0108353
0.0165815
0.0226202
0.028861
0.0352068
0.0415542
0.0477939
0.0538111
0.0594874
0.0647019
0.0693341
0.0732656
0.0763836
0.0785835
0.079772
0.0798699
0.0788148
0.0765627
0.0730845
0.0683715
0.0624956
0.0555338
0.0467074
0.0354081
0.0244134
0.0122484
0.00300998
-0.00404159
-0.00985435
-0.0144306
-0.0177662
-0.0199299
-0.0209938
-0.0210257
-0.0200931
-0.018263
-0.015602
-0.0121763
-0.00805289
-0.00330007
0.00201112
0.00780591
0.0140047
0.020522
0.0272657
0.0341366
0.0410281
0.0478263
0.0544107
0.0606554
0.0664302
0.0716033
0.0760432
0.0796225
0.0822205
0.0837273
0.0840466
0.0831001
0.0808291
0.0771921
0.0721711
0.0658396
0.0582788
0.0486336
0.0362413
0.0204644
0.00733318
-0.00260542
-0.0101497
-0.0163286
-0.0211498
-0.0246153
-0.0268064
-0.0278076
-0.027698
-0.0265555
-0.0244561
-0.0214741
-0.0176817
-0.0131506
-0.00795273
-0.00216173
0.00414576
0.0108886
0.01798
0.0253262
0.0328257
0.0403686
0.0478366
0.055103
0.0620336
0.0684882
0.0743223
0.07939
0.0835471
0.0866549
0.0885841
0.0892192
0.088463
0.08624
0.082494
0.0771964
0.0704212
0.0622541
0.0517572
0.0382107
0.0149658
0.000841004
-0.00980717
-0.0178378
-0.0243642
-0.0294006
-0.0329562
-0.0351258
-0.0360078
-0.0356941
-0.0342737
-0.0318329
-0.0284538
-0.0242156
-0.0191948
-0.0134671
-0.00710864
-0.000197767
0.00718325
0.0149465
0.0229971
0.0312316
0.0395372
0.0477912
0.0558605
0.0636026
0.0708662
0.0774935
0.0833222
0.0881896
0.0919362
0.0944105
0.0954744
0.0950087
0.0929176
0.089127
0.0835951
0.0763952
0.0676161
0.0562302
0.0414556
0.00776575
-0.00738754
-0.0187577
-0.0272669
-0.0341178
-0.0393325
-0.0429288
-0.0450175
-0.0457127
-0.0451208
-0.043344
-0.0404794
-0.0366186
-0.031848
-0.0262493
-0.019902
-0.0128846
-0.00527668
0.00283893
0.011374
0.0202331
0.0293116
0.0384946
0.0476553
0.0566549
0.0653422
0.0735548
0.08112
0.0878582
0.0935856
0.0981193
0.101282
0.102909
0.102856
0.101
0.0972466
0.0915365
0.0839395
0.0745461
0.0622296
0.0461407
-0.00130396
-0.0175292
-0.0296366
-0.0386148
-0.0457611
-0.051108
-0.0546844
-0.0566198
-0.0570471
-0.0560896
-0.0538647
-0.0504826
-0.0460452
-0.0406468
-0.0343751
-0.0273131
-0.0195411
-0.0111395
-0.00219067
0.00721779
0.0169911
0.0270247
0.0372025
0.0473949
0.0574579
0.0672322
0.076544
0.0852054
0.0930177
0.099774
0.105265
0.109283
0.111633
0.112137
0.110644
0.107031
0.101215
0.0932602
0.0832553
0.0699634
0.0524621
-0.0124317
-0.0297821
-0.0426452
-0.0520793
-0.0594844
-0.0649058
-0.068387
-0.0700805
-0.0701417
-0.0687145
-0.0659344
-0.0619269
-0.0568058
-0.0506745
-0.0436265
-0.0357485
-0.0271221
-0.0178273
-0.00794503
0.00243936
0.0132333
0.024334
0.0356258
0.0469779
0.0582423
0.0692528
0.0798243
0.0897537
0.0988218
0.106796
0.113438
0.118506
0.121766
0.123004
0.122029
0.118684
0.112857
0.104598
0.0939919
0.079678
0.0606535
-0.0258298
-0.0443705
-0.0580112
-0.0678836
-0.0754999
-0.0809224
-0.0842143
-0.0855562
-0.0851318
-0.0831101
-0.0796485
-0.0748905
-0.0689642
-0.0619826
-0.0540461
-0.0452442
-0.0356591
-0.0253692
-0.0144522
-0.00298945
0.00893095
0.0212102
0.0337354
0.0463766
0.058984
0.0713859
0.0833871
0.0947694
0.105292
0.114697
0.12271
0.129051
0.133443
0.135624
0.135358
0.132441
0.126723
0.118234
0.107049
0.0916653
0.0709938
-0.04174
-0.0615517
-0.0759954
-0.0862814
-0.0940464
-0.0993758
-0.102359
-0.103213
-0.102155
-0.099388
-0.0950946
-0.0894404
-0.0825696
-0.0746067
-0.0656587
-0.0558177
-0.0451653
-0.0337764
-0.0217236
-0.00908148
0.00406889
0.0176355
0.0315115
0.0455705
0.0596637
0.0736163
0.0872252
0.100258
0.112453
0.123522
0.133155
0.141028
0.146812
0.150188
0.150863
0.148573
0.143119
0.134501
0.122773
0.106273
0.0838158
-0.0604407
-0.0816243
-0.0969007
-0.107565
-0.115395
-0.120509
-0.12303
-0.123222
-0.12135
-0.117653
-0.112347
-0.105625
-0.0976499
-0.0885584
-0.0784641
-0.0674612
-0.0556287
-0.043036
-0.0297476
-0.0158284
-0.00134914
0.0136088
0.0289479
0.0445497
0.06027
0.0759342
0.0913343
0.106226
0.120327
0.133319
0.144854
0.154555
0.162035
0.166907
0.168806
0.167394
0.162404
0.153791
0.141577
0.123918
0.0995182
-0.0822569
-0.10494
-0.121084
-0.132076
-0.139858
-0.144592
-0.146453
-0.145764
-0.142849
-0.137994
-0.13146
-0.123468
-0.114203
-0.103817
-0.0924287
-0.0801328
-0.0670039
-0.0531028
-0.0384824
-0.0231943
-0.0072946
0.00915014
0.0260566
0.0433188
0.0608019
0.0783365
0.0957137
0.11268
0.128937
0.144136
0.157885
0.169755
0.179288
0.186017
0.189486
0.189265
0.184995
0.176568
0.163957
0.1451
0.11858
-0.107575
-0.131923
-0.148971
-0.160216
-0.167795
-0.171932
-0.172872
-0.17102
-0.166773
-0.160483
-0.152457
-0.142955
-0.132188
-0.120319
-0.107475
-0.0937479
-0.079204
-0.0638919
-0.0478491
-0.0311089
-0.0137081
0.00430684
0.0228723
0.0419006
0.0612722
0.080829
0.100367
0.11963
0.138305
0.156016
0.17233
0.186756
0.198759
0.207775
0.21324
0.214603
0.211386
0.203388
0.190508
0.170424
0.14158
-0.136864
-0.163089
-0.181084
-0.192469
-0.199626
-0.202872
-0.202548
-0.199169
-0.193227
-0.185155
-0.17532
-0.164025
-0.151508
-0.137948
-0.123473
-0.108169
-0.092091
-0.0752705
-0.0577239
-0.0394612
-0.0204937
-0.000841938
0.0194567
0.0403393
0.0617094
0.0834278
0.105303
0.127084
0.148448
0.169
0.188263
0.205685
0.220643
0.232463
0.240445
0.243889
0.242157
0.234916
0.221954
0.20063
0.169222
-0.170707
-0.199086
-0.218066
-0.229423
-0.23585
-0.237801
-0.235756
-0.230377
-0.222281
-0.211999
-0.199972
-0.186552
-0.172004
-0.156519
-0.140224
-0.123195
-0.105467
-0.0870503
-0.0679324
-0.0480939
-0.0275143
-0.00618127
0.0159011
0.0387031
0.0621593
0.0861588
0.110533
0.135044
0.159373
0.18311
0.205743
0.226657
0.245135
0.260377
0.271522
0.277676
0.277993
0.271957
0.259183
0.23663
0.202374
-0.209844
-0.240742
-0.260733
-0.2718
-0.277056
-0.277155
-0.27278
-0.264785
-0.253954
-0.240936
-0.226259
-0.210326
-0.19343
-0.175766
-0.157455
-0.138553
-0.119069
-0.0989819
-0.0782445
-0.0568002
-0.0345893
-0.0115589
0.0123281
0.0370836
0.0626836
0.0890559
0.116067
0.143506
0.171071
0.19835
0.224805
0.249766
0.272419
0.291823
0.306925
0.316592
0.319706
0.315485
0.303296
0.279568
0.242117
-0.255245
-0.289138
-0.310132
-0.320503
-0.323945
-0.321421
-0.313895
-0.302489
-0.288189
-0.271795
-0.253926
-0.235037
-0.21544
-0.19533
-0.174804
-0.15389
-0.132561
-0.110752
-0.0883739
-0.065324
-0.0414956
-0.0167874
0.00888779
0.0355928
0.0633555
0.0921552
0.121908
0.152447
0.183503
0.214682
0.245441
0.275062
0.302644
0.327093
0.347137
0.361348
0.368251
0.366697
0.355672
0.330895
0.289824
-0.308213
-0.345724
-0.367636
-0.376666
-0.377353
-0.371123
-0.359348
-0.343498
-0.324818
-0.304274
-0.282582
-0.260243
-0.237571
-0.214741
-0.191813
-0.16877
-0.145533
-0.121985
-0.0979813
-0.0733651
-0.0479741
-0.0216504
0.0057515
0.0343552
0.0642515
0.0954853
0.128038
0.161807
0.196582
0.232011
0.267569
0.302522
0.335892
0.366437
0.392642
0.412726
0.424751
0.427057
0.418068
0.392496
0.347275
-0.370558
-0.412492
-0.435067
-0.441723
-0.438257
-0.426806
-0.409307
-0.387689
-0.363503
-0.337896
-0.311671
-0.285348
-0.25922
-0.233412
-0.207926
-0.182675
-0.157512
-0.132251
-0.106685
-0.0805901
-0.0537412
-0.0259158
0.00309801
0.0334938
0.0654369
0.0990515
0.134404
0.171479
0.210151
0.250148
0.291002
0.332
0.372126
0.410009
0.443883
0.471556
0.490508
0.498378
0.492748
0.46687
0.416843
-0.444879
-0.492238
-0.514878
-0.517481
-0.50778
-0.488976
-0.46379
-0.434722
-0.403671
-0.371954
-0.340423
-0.309574
-0.279632
-0.250635
-0.222489
-0.195011
-0.167965
-0.141084
-0.114077
-0.0866516
-0.0585087
-0.0293552
0.00109416
0.0331109
0.0669452
0.102815
0.14089
0.181269
0.223947
0.268772
0.315391
0.36317
0.411117
0.457785
0.501179
0.53866
0.566998
0.582888
0.582671
0.55741
0.501794
-0.535052
-0.588992
-0.610403
-0.606199
-0.587136
-0.557993
-0.522529
-0.483922
-0.444414
-0.405436
-0.367811
-0.331934
-0.297893
-0.265582
-0.234764
-0.205132
-0.176334
-0.148
-0.119753
-0.0912144
-0.0620098
-0.0317698
-0.00013101
0.033262
0.0687528
0.106665
0.147292
0.190872
0.237561
0.287382
0.340161
0.395435
0.452334
0.509434
0.564591
0.614735
0.655814
0.683302
0.691742
0.668848
0.606819
-0.647122
-0.708691
-0.726173
-0.710611
-0.677497
-0.63387
-0.584779
-0.53411
-0.484365
-0.436944
-0.392506
-0.351216
-0.312931
-0.277321
-0.243958
-0.212367
-0.182058
-0.152542
-0.123341
-0.0939892
-0.0640321
-0.0330222
-0.000516596
0.0339266
0.0707491
0.110391
0.153283
0.199832
0.250393
0.305227
0.364427
0.427815
0.49479
0.564127
0.633701
0.70013
0.758518
0.802849
0.82514
0.807963
0.738977
-0.790978
-0.860258
-0.868297
-0.833844
-0.779694
-0.715924
-0.648998
-0.583374
-0.521544
-0.464613
-0.41284
-0.365986
-0.323538
-0.284858
-0.249261
-0.216068
-0.184625
-0.154312
-0.124546
-0.0947711
-0.064453
-0.0330695
-0.000100973
0.0349785
0.0727091
0.11365
0.158383
0.207504
0.261609
0.321256
0.386907
0.458815
0.536856
0.620269
0.70727
0.794471
0.876313
0.945163
0.98969
0.984693
0.909502
-0.983771
-1.05733
-1.04473
-0.97897
-0.893551
-0.802153
-0.712385
-0.62875
-0.553182
-0.486028
-0.426799
-0.374609
-0.328422
-0.287188
-0.249907
-0.215662
-0.18362
-0.153027
-0.123193
-0.0934773
-0.0632737
-0.0319934
0.000951341
0.0361623
0.0742711
0.115954
0.161943
0.213037
0.270101
0.334054
0.405827
0.486273
0.576009
0.675125
0.782698
0.895967
1.00931
1.11378
1.19411
1.21391
1.13745
-1.25683
-1.32074
-1.26486
-1.1476
-1.01645
-0.888101
-0.770104
-0.665777
-0.575499
-0.498146
-0.432018
-0.3753
-0.326264
-0.283359
-0.245231
-0.210707
-0.178776
-0.148554
-0.119258
-0.0901752
-0.0606431
-0.0300204
0.00233297
0.0370793
0.0749261
0.116651
0.163128
0.215354
0.274475
0.341808
0.418839
0.507194
0.608528
0.724281
0.855167
1.00016
1.15496
1.31062
1.44849
1.51794
1.45695
-1.66764
-1.68095
-1.53763
-1.33743
-1.14125
-0.965501
-0.814573
-0.688225
-0.583688
-0.497412
-0.425955
-0.36629
-0.315873
-0.272608
-0.234778
-0.200974
-0.170029
-0.140954
-0.112898
-0.0851014
-0.0568656
-0.0275203
0.00360489
0.0372087
0.0740496
0.11498
0.160985
0.213235
0.273134
0.342395
0.423103
0.517778
0.629398
0.761308
0.91687
1.09851
1.30586
1.53334
1.76224
1.92854
1.92911
-2.32084
-2.17836
-1.86797
-1.54019
-1.25558
-1.02234
-0.836087
-0.68899
-0.572864
-0.480634
-0.406629
-0.346439
-0.296676
-0.254735
-0.218596
-0.186671
-0.157688
-0.130601
-0.104528
-0.0786965
-0.0524011
-0.0249707
0.00426657
0.0360159
0.0710521
0.110262
0.154696
0.205637
0.264689
0.333895
0.415895
0.514125
0.633059
0.778445
0.957433
1.17827
1.44889
1.77309
2.14009
2.48672
2.66213
-3.4507
-2.86297
-2.23642
-1.72634
-1.33269
-1.03793
-0.820371
-0.65896
-0.537538
-0.4447
-0.37243
-0.315061
-0.268544
-0.229941
-0.197076
-0.168293
-0.142302
-0.118067
-0.0947268
-0.0715346
-0.0478169
-0.0229332
0.00375701
0.0329296
0.0653333
0.101836
0.143486
0.191589
0.247827
0.314423
0.394381
0.491854
0.612674
0.76511
0.960937
1.21688
1.55505
1.99796
2.56122
3.24423
3.89591
-5.67063
-3.76367
-2.50164
-1.76586
-1.28074
-0.951932
-0.728801
-0.573445
-0.461656
-0.378864
-0.315927
-0.266856
-0.227611
-0.195372
-0.168113
-0.14432
-0.122831
-0.102721
-0.0832244
-0.0636826
-0.0435011
-0.0221159
0.0010377
0.0265561
0.0551024
0.0874492
0.124535
0.167544
0.218021
0.27805
0.350534
0.439646
0.551595
0.695889
0.887671
1.1521
1.52933
2.07406
2.88246
4.23271
6.24793
-9.44952
-4.64475
-2.3744
-1.46586
-0.99098
-0.707114
-0.531333
-0.416077
-0.335758
-0.277234
-0.233147
-0.198966
-0.171724
-0.149372
-0.130431
-0.11379
-0.0985814
-0.0841098
-0.069792
-0.0551215
-0.0396381
-0.0229034
-0.00447783
0.0161014
0.0393464
0.0658496
0.0963247
0.131664
0.173024
0.221953
0.280606
0.352116
0.441258
0.555761
0.709238
0.927955
1.26235
1.80472
2.80759
5.19286
10.1182
)
;

boundaryField
{
    movingWall
    {
        type            zeroGradient;
    }
    fixedWalls
    {
        type            zeroGradient;
    }
    frontAndBack
    {
        type            empty;
    }
}


// ************************************************************************* //
